
                                 *****************
                                 * O   R   C   A *
                                 *****************

                                            #,                                       
                                            ###                                      
                                            ####                                     
                                            #####                                    
                                            ######                                   
                                           ########,                                 
                                     ,,################,,,,,                         
                               ,,#################################,,                 
                          ,,##########################################,,             
                       ,#########################################, ''#####,          
                    ,#############################################,,   '####,        
                  ,##################################################,,,,####,       
                ,###########''''           ''''###############################       
              ,#####''   ,,,,##########,,,,          '''####'''          '####       
            ,##' ,,,,###########################,,,                        '##       
           ' ,,###''''                  '''############,,,                           
         ,,##''                                '''############,,,,        ,,,,,,###''
      ,#''                                            '''#######################'''  
     '                                                          ''''####''''         
             ,#######,   #######,   ,#######,      ##                                
            ,#'     '#,  ##    ##  ,#'     '#,    #''#        ,####,    ,#,          
            ##       ##  ##   ,#'  ##            #'  '#       #'       ,# #          
            ##       ##  #######   ##           ,######,      #####,      #          
            '#,     ,#'  ##    ##  '#,     ,#' ,#      #,     #,   #      #          
             '#######'   ##     ##  '#######'  #'      '#     '####' #    #          



                #########################################################
                #                        -***-                          #
                #          Department of theory and spectroscopy        #
                #                                                       #
                #                      Frank Neese                      #
                #                                                       #
                #     Directorship, Architecture, Infrastructure        #
                #                    SHARK, DRIVERS                     #
                #        Core code/Algorithms in most modules           #
                #                                                       #
                #        Max Planck Institute fuer Kohlenforschung      #
                #                Kaiser Wilhelm Platz 1                 #
                #                 D-45470 Muelheim/Ruhr                 #
                #                      Germany                          #
                #                                                       #
                #                  All rights reserved                  #
                #                        -***-                          #
                #########################################################


                         Program Version 6.1.0  -  RELEASE   -
                                (GIT: $679e74b$)
                          ($2025-06-10 18:02:51 +0200$)


 With contributions from (in alphabetic order):
[Max-Planck-Institut fuer Kohlenforschung]                               
  Daniel Aravena         : Magnetic Suceptibility                        
  Michael Atanasov       : Ab Initio Ligand Field Theory (pilot matlab implementation)
  Alexander A. Auer      : GIAO ZORA, VPT2 properties, NMR spectrum      
  Ute Becker             : All parallelization in ORCA, NUMFREQ, NUMCALC 
  Giovanni Bistoni       : ED, misc. LED, open-shell LED, HFLD           
  Dmytro Bykov           : pre 5.0 version of the SCF Hessian            
  Marcos Casanova-Páez   : Triplet and SCS-CIS(D). UHF-(DLPNO)-IP/EA/STEOM-CCSD. UHF-CVS-IP/STEOM-CCSD   
  Vijay G. Chilkuri      : MRCI spin determinant printing, contributions to CSF-ICE 
  Pauline Colinet        : FMM embedding                                 
  Dipayan Datta          : RHF DLPNO-CCSD density                        
  Achintya Kumar Dutta   : EOM-CC, STEOM-CC                              
  Nicolas Foglia         : Exact transition moments, OPA infrastructure, MCD improvements    
  Dmitry Ganyushin       : Spin-Orbit,Spin-Spin,Magnetic field MRCI      
  Miquel Garcia-Rates    : C-PCM and meta-GGA Hessian, CCSD/C-PCM, Gaussian charge scheme 
  Tiago L. C. Gouveia    : GS-ROHF, GS-ROCIS                             
  Yang Guo               : DLPNO-NEVPT2, F12-NEVPT2, CIM, IAO-localization        
  Andreas Hansen         : Spin unrestricted coupled pair/coupled cluster methods 
  Ingolf Harden          : AUTO-CI MPn and infrastructure                
  Benjamin Helmich-Paris : MC-RPA, TRAH-(SCF,CASSCF), AVAS, COSX integrals, SCF dyn. polar., MC-PDFT, srDFT 
  Lee Huntington         : MR-EOM, pCC                                   
  Robert Izsak           : Overlap fitted RIJCOSX, COSX-SCS-MP3, EOM     
  Riya Kayal             : Wick's Theorem for AUTO-CI, AUTO-CI UHF-CCSDT 
  Emily Kempfer          : AUTO-CI RHF CISDT and CCSDT, approximate NEVPT4
  Christian Kollmar      : KDIIS, OOCD, Brueckner-CCSD(T), CCSD density, CASPT2, CASPT2-K, improved NEVPT2 
  Axel Koslowski         : Symmetry handling                             
  Simone Kossmann        : meta-GGA functionals, TD-DFT gradient, OOMP2, (MP2 Hessian; deprecated post 5.0) 
  Lucas Lang             : DCDCAS, Hyperfine gauge corrections, ICE-SOC+SSC
  Marvin Lechner         : AUTO-CI (C++ implementation), FIC-MRCC        
  Spencer Leger          : CASSCF response                               
  Dagmar Lenk            : GEPOL surface, SMD, ORCA-2-JSON               
  Dimitrios Liakos       : Extrapolation schemes; Compound Job, Property file
  Dimitrios Manganas     : Further ROCIS development; embedding schemes. LFT, Crystal Embedding 
  Dimitrios Pantazis     : SARC Basis sets                               
  Anastasios Papadopoulos: AUTO-CI, single reference methods and gradients 
  Taras Petrenko         : pre 6.0 DFT Hessian and TD-DFT gradient,  ECA, NRVS 
  Petra Pikulova         : Analytic Raman intensities                    
  Peter Pinski           : DLPNO-MP2, DLPNO-MP2 Gradient                 
  Shashank Vittal Rao    : ES-AILFT, MagRelax                            
  Christoph Reimann      : Effective Core Potentials                     
  Marius Retegan         : Local ZFS, SOC                                
  Christoph Riplinger    : Optimizer, TS searches, QM/MM, DLPNO-CCSD(T), (RO)-DLPNO pert. Triples 
  Michael Roemelt        : Original ROCIS implementation, recursive CI coupling coefficients
  Masaaki Saitow         : Open-shell DLPNO-CCSD energy and density      
  Barbara Sandhoefer     : DKH picture change effects                    
  Yorick L. A. Schmerwitz: GMF and freeze-and-release deltaSCF, NEB S-IDPP initial path                    
  Kantharuban Sivalingam : CASSCF convergence/infrastructure, NEVPT2, NEVPT3, NEVPT4(SD), FIC-MRCI and CEPA variants
  Bernardo de Souza      : ESD, SOC TD-DFT                               
  Georgi L. Stoychev     : AutoAux, RI-MP2 NMR, DLPNO-MP2 response, X2C  
  Van Anh Tran           : RI-MP2 g-tensors                              
  Willem Van den Heuvel  : Paramagnetic NMR                              
  Zikuan Wang            : NOTCH, Electric field optimization            
  Frank Wennmohs         : Technical directorship and infrastructure     
  Hang Xu                : AUTO-CI-Response properties                   
                                                                         
[FACCTs GmbH]                                                            
  Markus Bursch, Nicolas Foglia, Miquel Garcia-Rates, Ingolf Harden, Hagen Neugebauer, Anastasios Papadopoulos, 
  Christoph Riplinger, Bernardo de Souza, Georgi L. Stoychev                                                    
                                                                 
  APM, various basis sets, CI-OPT, improved COSX, DLPNO-Multilevel,           
  DOCKER, DRACO, updates on ESD, Fragmentator, GOAT, IRC, LR-CPCM, L-BFGS, MBIS, meta-GGA TD-DFT gradient, ML-optimized integration grids, 
  MM, NACMEs, nearIR, NEB, NEB-TS, NL-DFT gradient (VV10), 2- and 3-layer-ONIOM, interface openCOSMO-RS, QMMM,   
  Crystal-QMMM, RESP, rigid body optimization, SF, symmetry and pop. for TD-DFT, various functionals, SOLVATOR                                   
                                                                         
[Other institutions]                                                     
  V. Asgeirsson          : NEB                                           
  Christoph Bannwarth    : sTDA-DFT, sTD-DFT, PBEh-3c, B97-3c, D3        
  Giovanni Bistoni       : ETS/NOCV, ADLD/ADEX, COVALED                  
  Martin Brehm           : Molecular dynamics                            
  Ronald Cardenas        : ETS/NOCV                                      
  Martina Colucci        : COVALED                                       
  Sebastian Ehlert       : rSCAN, r2SCAN, r2SCAN-3c, D4, dhf basis sets  
  Marvin Friede          : D4 for Fr, Ra, Ac-Lr                          
  Lars Goerigk           : TD-DFT with DH, B97 family of functionals     
  Stefan Grimme          : VdW corrections, initial TS optimization, DFT functionals, gCP, sTDA/sTD-DF 
  Waldemar Hujo          : DFT-NL                                        
  H. Jonsson             : NEB                                           
  Holger Kruse           : gCP                                           
  Marcel Mueller         : wB97X-3c, vDZP basis set                      
  Hagen Neugebauer       : wr2SCAN, Native XTB                           
  Gianluca Regni         : ADLD/ADEX                                     
  Tobias Risthaus        : pre 6.0 range-separated hybrid DFT and stability analysis
  Lukas Wittmann         : regularized MP2, r2SCAN double-hybrids, wr2SCAN        
                                                                         
We gratefully acknowledge several colleagues who have allowed us to      
interface, adapt or use parts of their codes:                            
  Ed Valeev, F. Pavosevic, A. Kumar             : LibInt (2-el integral package), F12 methods 
  Garnet Chan, S. Sharma, J. Yang, R. Olivares  : DMRG                   
  Ulf Ekstrom                                   : XCFun DFT Library      
  Mihaly Kallay                                 : mrcc  (arbitrary order and MRCC methods)
  Frank Weinhold                                : gennbo (NPA and NBO analysis)           
  Simon Mueller                                 : openCOSMO-RS                            
  Christopher J. Cramer and Donald G. Truhlar   : smd solvation model                     
  S Lehtola, MJT Oliveira, MAL Marques          : LibXC Library                           
  Liviu Ungur et al                             : ANISO software                          


 Your calculation uses the libint2 library for the computation of 2-el integrals
 For citations please refer to: http://libint.valeyev.net

 Your ORCA version has been built with support for libXC version: 7.0.0
 For citations please refer to: https://libxc.gitlab.io

 This ORCA versions uses:
   CBLAS   interface :  Fast vector & matrix operations
   LAPACKE interface :  Fast linear algebra routines
   SCALAPACK package :  Parallel linear algebra routines
   Shared memory     :  Shared parallel matrices
   BLAS/LAPACK       :  OpenBLAS 0.3.29  USE64BITINT DYNAMIC_ARCH NO_AFFINITY Haswell SINGLE_THREADED
        Core in use  :  Haswell
   Copyright (c) 2011-2014, The OpenBLAS Project


  ***********************************
  * Starting time: Sun Jul  6 00:35:09 2025
  * Host name:     madsr2d2
  * Process ID:    863769
  * Working dir.:  /home/madsr2d2/chem/comp_chem/BnOH_H2O2/xtb/ts/ts_opt
  ***********************************

NOTE: MaxCore=2200 MB was set to SCF,MP2,MDCI,CIPSI,MRCI,RASCI and CIS
      => If you want to overwrite this, your respective input block should be placed after the MaxCore statement
Your calculation utilizes the semiempirical GFN2-xTB method
Please cite in your paper:
Bannwarth, C.; Ehlert S.; Grimme, S. J. Chem. Theory Comput. 2019, 15, 1652.
   

================================================================================

================================================================================
                                        WARNINGS
                       Please study these warnings very carefully!
================================================================================


WARNING: Analytical Hessian for XTB is limited in the analysis of the data.
       : If you want to obtain extensive IR and deltaG analysis, please use ! XTB NumFreq. 


WARNING: Geometry Optimization
  ===> : Switching off AutoStart
         For restart on a previous wavefunction, please use MOREAD

WARNING: Found dipole moment calculation with XTB calculation
  ===> : Switching off dipole moment calculation


WARNING: Found frequency calculation in combination with XTB calculation
  ===> : Need to redirect dipole moment calculation to properties.out


================================================================================
                                       INPUT FILE
================================================================================
NAME = BnOH_H2O2_ts_opt.inp
|  1> !xtb
|  2> !alpb(water)
|  3> !optts
|  4> !slowconv
|  5> !tightscf
|  6> !freq
|  7> !irc
|  8> %maxcore 2200
|  9> %pal
| 10>     nprocs 12
| 11> end
| 12> 
| 13> %geom
| 14>     maxiter 1000
| 15>     cartfallback true
| 16>     calc_hess true
| 17>     recalc_hess 25
| 18> end
| 19> 
| 20> %irc
| 21>     maxiter 100
| 22> end
| 23> 
| 24> %output
| 25>     jsonpropfile true
| 26>     jsongbwfile true
| 27> end
| 28> 
| 29> * xyz 0 1
| 30> C            -0.1723017513932700             0.0692790281079100             0.9415901451532001
| 31> C            -1.5114722700506400            -0.0272451766434100             1.2590019268918400
| 32> C            -2.4555446676647699            -0.2051917346218400             0.2568391953322000
| 33> C            -2.0546595961954099            -0.2876605050646100            -1.0680919471839001
| 34> C            -0.7162547120873900            -0.1972226518158500            -1.3951696427051301
| 35> C             0.2395008119508100            -0.0075437644831900            -0.3930635908946400
| 36> C             1.6583410285728200             0.1019782081889500            -0.7190975470132500
| 37> O             1.9716027320562299             0.2601184237578900            -2.0166149610835902
| 38> H             0.5648618405185100             0.1984806486595800             1.7189781601051799
| 39> H            -1.8252714597636499             0.0338136316755000             2.2895567599919202
| 40> H            -3.5015371551691699            -0.2817027574554700             0.5102675526882500
| 41> H            -2.7890276255413702            -0.4265994297671100            -1.8462635536545000
| 42> H            -0.3933154166801400            -0.2573885755436100            -2.4224441501523599
| 43> H             2.1132737072387400            -1.1430892974980500            -0.3760765204284900
| 44> H             2.2597980208995501             0.6492244708936100             0.0055850378915400
| 45> H             2.8970314500783201             0.5203427167914900            -2.1507932034921202
| 46> O             2.5463168128129299            -2.0954527576966000            -0.1541498006762300
| 47> O             3.4230200264564101            -3.6582109524867201             0.5032274020261200
| 48> H             2.2324742583455199            -2.6923655804885298            -0.8441071774256200
| 49> H             3.7237460875817900            -3.2935283991363700             1.3374348102850699
| 50> *
| 51> 
| 52>                          ****END OF INPUT****
================================================================================

                       *****************************
                       * Geometry Optimization Run *
                       *****************************

Geometry optimization settings:
Update method            Update   .... Bofill
Choice of coordinates    CoordSys .... (2022) Redundant Internals
Initial Hessian          InHess   .... Almloef's Model
Max. no of cycles        MaxIter  .... 1000

Convergence Tolerances:
Energy Change            TolE     ....  5.0000e-06 Eh
Max. Gradient            TolMAXG  ....  3.0000e-04 Eh/bohr
RMS Gradient             TolRMSG  ....  1.0000e-04 Eh/bohr
Max. Displacement        TolMAXD  ....  4.0000e-03 bohr
RMS Displacement         TolRMSD  ....  2.0000e-03 bohr
Strict Convergence                .... False

------------------------------------------------------------------------------
                        ORCA OPTIMIZATION COORDINATE SETUP
------------------------------------------------------------------------------

The optimization will be done in redundant internal coordinates (2022)
Making redundant internal coordinates   ...  (2022 redundants) done
Following TS mode number                ...     0
Evaluating the initial hessian          ...  (Is done on the fly) done
Evaluating the coordinates              ...  done
Calculating the B-matrix                .... done
Calculating the G-matrix                .... done
The number of degrees of freedom        ....   93

    -----------------------------------------------------------------
                    Redundant Internal Coordinates


    -----------------------------------------------------------------
         Definition                    Initial Value    d2E/dq (diagonal element)
    -----------------------------------------------------------------
      1. B(C   1,C   0)                  1.3797         0.000000   
      2. B(C   2,C   1)                  1.3883         0.000000   
      3. B(C   3,C   2)                  1.3867         0.000000   
      4. B(C   4,C   3)                  1.3808         0.000000   
      5. B(C   5,C   4)                  1.3977         0.000000   
      6. B(C   5,C   0)                  1.3989         0.000000   
      7. B(C   6,C   5)                  1.4599         0.000000   
      8. B(O   7,C   6)                  1.3441         0.000000   
      9. B(H   8,C   0)                  1.0791         0.000000   
     10. B(H   9,C   1)                  1.0790         0.000000   
     11. B(H  10,C   2)                  1.0790         0.000000   
     12. B(H  11,C   3)                  1.0790         0.000000   
     13. B(H  12,C   4)                  1.0785         0.000000   
     14. B(H  13,C   6)                  1.3692         0.000000   
     15. B(H  13,O   7)                  2.1634         0.000000   
     16. B(H  14,C   6)                  1.0892         0.000000   
     17. B(H  15,O   7)                  0.9706         0.000000   
     18. B(O  16,H  13)                  1.0695         0.000000   
     19. B(O  17,O  16)                  1.9087         0.000000   
     20. B(H  18,O  16)                  0.9648         0.000000   
     21. B(H  19,O  17)                  0.9588         0.000000   
     22. A(C   1,C   0,C   5)          120.0936         0.000000   
     23. A(C   1,C   0,H   8)          120.3794         0.000000   
     24. A(C   5,C   0,H   8)          119.5260         0.000000   
     25. A(C   0,C   1,C   2)          120.1968         0.000000   
     26. A(C   0,C   1,H   9)          119.8723         0.000000   
     27. A(C   2,C   1,H   9)          119.9308         0.000000   
     28. A(C   1,C   2,H  10)          119.9198         0.000000   
     29. A(C   3,C   2,H  10)          120.0301         0.000000   
     30. A(C   1,C   2,C   3)          120.0499         0.000000   
     31. A(C   2,C   3,C   4)          120.1761         0.000000   
     32. A(C   4,C   3,H  11)          119.8241         0.000000   
     33. A(C   2,C   3,H  11)          119.9994         0.000000   
     34. A(C   3,C   4,C   5)          120.1238         0.000000   
     35. A(C   5,C   4,H  12)          119.0590         0.000000   
     36. A(C   3,C   4,H  12)          120.8117         0.000000   
     37. A(C   0,C   5,C   6)          119.6733         0.000000   
     38. A(C   0,C   5,C   4)          119.3538         0.000000   
     39. A(C   4,C   5,C   6)          120.9716         0.000000   
     40. A(H  13,C   6,H  14)           96.1260         0.000000   
     41. A(O   7,C   6,H  14)          117.0293         0.000000   
     42. A(C   5,C   6,H  14)          115.1988         0.000000   
     43. A(O   7,C   6,H  13)          105.7464         0.000000   
     44. A(C   5,C   6,H  13)          101.4632         0.000000   
     45. A(C   5,C   6,O   7)          116.8015         0.000000   
     46. A(C   6,O   7,H  15)          112.7797         0.000000   
     47. L(C   6,H  13,O  16,O   7, 2) 174.6681         0.000000   
     48. L(C   6,H  13,O  16,O   7, 1) 176.3177         0.000000   
     49. A(O  17,O  16,H  18)           83.6359         0.000000   
     50. A(H  13,O  16,H  18)          105.7137         0.000000   
     51. A(H  13,O  16,O  17)          170.6011         0.000000   
     52. A(O  16,O  17,H  19)           97.6028         0.000000   
     53. D(H   9,C   1,C   0,C   5)   -179.9177         0.000000   
     54. D(C   2,C   1,C   0,H   8)   -179.4333         0.000000   
     55. D(C   2,C   1,C   0,C   5)      0.2062         0.000000   
     56. D(H   9,C   1,C   0,H   8)      0.4428         0.000000   
     57. D(C   3,C   2,C   1,C   0)      0.0524         0.000000   
     58. D(C   3,C   2,C   1,H   9)   -179.8236         0.000000   
     59. D(H  10,C   2,C   1,H   9)      0.0261         0.000000   
     60. D(H  10,C   2,C   1,C   0)    179.9021         0.000000   
     61. D(H  11,C   3,C   2,H  10)      0.1113         0.000000   
     62. D(H  11,C   3,C   2,C   1)    179.9608         0.000000   
     63. D(C   4,C   3,C   2,H  10)   -179.6570         0.000000   
     64. D(C   4,C   3,C   2,C   1)      0.1925         0.000000   
     65. D(C   5,C   4,C   3,H  11)    179.5371         0.000000   
     66. D(H  12,C   4,C   3,C   2)   -179.8348         0.000000   
     67. D(C   5,C   4,C   3,C   2)     -0.6941         0.000000   
     68. D(H  12,C   4,C   3,H  11)      0.3965         0.000000   
     69. D(C   6,C   5,C   4,H  12)     -0.3204         0.000000   
     70. D(C   0,C   5,C   4,H  12)   -179.9001         0.000000   
     71. D(C   0,C   5,C   4,C   3)      0.9443         0.000000   
     72. D(C   6,C   5,C   0,H   8)     -0.6430         0.000000   
     73. D(C   6,C   5,C   0,C   1)    179.7145         0.000000   
     74. D(C   6,C   5,C   4,C   3)   -179.4761         0.000000   
     75. D(C   4,C   5,C   0,H   8)    178.9422         0.000000   
     76. D(C   4,C   5,C   0,C   1)     -0.7004         0.000000   
     77. D(H  14,C   6,C   5,C   4)    155.0925         0.000000   
     78. D(H  14,C   6,C   5,C   0)    -25.3292         0.000000   
     79. D(H  13,C   6,C   5,C   4)   -102.4476         0.000000   
     80. D(H  13,C   6,C   5,C   0)     77.1307         0.000000   
     81. D(O   7,C   6,C   5,C   4)     11.9250         0.000000   
     82. D(O   7,C   6,C   5,C   0)   -168.4966         0.000000   
     83. D(H  15,O   7,C   6,C   5)    167.3532         0.000000   
     84. D(H  15,O   7,C   6,H  14)     24.8663         0.000000   
     85. D(H  15,O   7,C   6,H  13)    -80.6980         0.000000   
     86. D(H  18,O  16,C   6,O   7)    -49.2461         0.000000   
     87. D(H  18,O  16,C   6,C   5)     73.4018         0.000000   
     88. D(O  17,O  16,C   6,H  14)     -0.2864         0.000000   
     89. D(O  17,O  16,C   6,O   7)    119.4339         0.000000   
     90. D(H  18,O  16,C   6,H  14)   -168.9664         0.000000   
     91. D(O  17,O  16,C   6,C   5)   -117.9182         0.000000   
     92. D(H  19,O  17,O  16,H  18)   -171.4668         0.000000   
     93. D(H  19,O  17,O  16,H  13)      2.7379         0.000000   
    -----------------------------------------------------------------

Number of atoms                         .... 20
Number of degrees of freedom            .... 93


         *************************************************************
         *                GEOMETRY OPTIMIZATION CYCLE   1            *
         *************************************************************
---------------------------------
CARTESIAN COORDINATES (ANGSTROEM)
---------------------------------
  C    -0.172302    0.069279    0.941590
  C    -1.511472   -0.027245    1.259002
  C    -2.455545   -0.205192    0.256839
  C    -2.054660   -0.287661   -1.068092
  C    -0.716255   -0.197223   -1.395170
  C     0.239501   -0.007544   -0.393064
  C     1.658341    0.101978   -0.719098
  O     1.971603    0.260118   -2.016615
  H     0.564862    0.198481    1.718978
  H    -1.825271    0.033814    2.289557
  H    -3.501537   -0.281703    0.510268
  H    -2.789028   -0.426599   -1.846264
  H    -0.393315   -0.257389   -2.422444
  H     2.113274   -1.143089   -0.376077
  H     2.259798    0.649224    0.005585
  H     2.897031    0.520343   -2.150793
  O     2.546317   -2.095453   -0.154150
  O     3.423020   -3.658211    0.503227
  H     2.232474   -2.692366   -0.844107
  H     3.723746   -3.293528    1.337435

----------------------------
CARTESIAN COORDINATES (A.U.)
----------------------------
  NO LB    ZA    FRAG    MASS        X           Y           Z
   0 C   6.0000    0    12.011   -0.325603    0.130918    1.779348
   1 C   6.0000    0    12.011   -2.856269   -0.051486    2.379169
   2 C   6.0000    0    12.011   -4.640307   -0.387756    0.485356
   3 C   6.0000    0    12.011   -3.882744   -0.543600   -2.018401
   4 C   6.0000    0    12.011   -1.353525   -0.372697   -2.636489
   5 C   6.0000    0    12.011    0.452591   -0.014256   -0.742783
   6 C   6.0000    0    12.011    3.133810    0.192711   -1.358897
   7 O   8.0000    0    15.999    3.725789    0.491553   -3.810850
   8 H   1.0000    0     1.008    1.067434    0.375074    3.248398
   9 H   1.0000    0     1.008   -3.449263    0.063899    4.326635
  10 H   1.0000    0     1.008   -6.616946   -0.532341    0.964266
  11 H   1.0000    0     1.008   -5.270498   -0.806156   -3.488932
  12 H   1.0000    0     1.008   -0.743258   -0.486394   -4.577756
  13 H   1.0000    0     1.008    3.993509   -2.160126   -0.710682
  14 H   1.0000    0     1.008    4.270399    1.226856    0.010554
  15 H   1.0000    0     1.008    5.474596    0.983305   -4.064410
  16 O   8.0000    0    15.999    4.811841   -3.959832   -0.291301
  17 O   8.0000    0    15.999    6.468570   -6.913017    0.950962
  18 H   1.0000    0     1.008    4.218765   -5.087834   -1.595131
  19 H   1.0000    0     1.008    7.036860   -6.223867    2.527386

      -----------------------------------------------------------      
     |                   =====================                   |     
     |                           x T B                           |     
     |                   =====================                   |     
     |                         S. Grimme                         |     
     |          Mulliken Center for Theoretical Chemistry        |     
     |                    University of Bonn                     |     
      -----------------------------------------------------------      

   * xtb version 6.7.1 (edcfbbe) compiled by 'albert@albert-system' on 2024-07-22

   xtb is free software: you can redistribute it and/or modify it under
   the terms of the GNU Lesser General Public License as published by
   the Free Software Foundation, either version 3 of the License, or
   (at your option) any later version.
   
   xtb is distributed in the hope that it will be useful,
   but WITHOUT ANY WARRANTY; without even the implied warranty of
   MERCHANTABILITY or FITNESS FOR A PARTICULAR PURPOSE.  See the
   GNU Lesser General Public License for more details.
   
   Cite this work as:
   * C. Bannwarth, E. Caldeweyher, S. Ehlert, A. Hansen, P. Pracht,
     J. Seibert, S. Spicher, S. Grimme, WIREs Comput. Mol. Sci., 2020, 11,
     e01493. DOI: 10.1002/wcms.1493
   
   for GFN2-xTB:
   * C. Bannwarth, S. Ehlert and S. Grimme., J. Chem. Theory Comput., 2019,
     15, 1652-1671. DOI: 10.1021/acs.jctc.8b01176
   for GFN1-xTB:
   * S. Grimme, C. Bannwarth, P. Shushkov, J. Chem. Theory Comput., 2017,
     13, 1989-2009. DOI: 10.1021/acs.jctc.7b00118
   for GFN0-xTB:
   * P. Pracht, E. Caldeweyher, S. Ehlert, S. Grimme, ChemRxiv, 2019, preprint.
     DOI: 10.26434/chemrxiv.8326202.v1
   for GFN-FF:
   * S. Spicher and S. Grimme, Angew. Chem. Int. Ed., 2020, 59, 15665-15673.
     DOI: 10.1002/anie.202004239
   
   for ALPB and GBSA implicit solvation:
   * S. Ehlert, M. Stahn, S. Spicher, S. Grimme, J. Chem. Theory Comput.,
     2021, 17, 4250-4261. DOI: 10.1021/acs.jctc.1c00471
   
   for ddCOSMO and CPCM-X implicit solvation:
   * M. Stahn, S. Ehlert, S. Grimme, J. Phys. Chem. A,
     2023, XX, XXXX-XXXX. DOI: 10.1021/acs.jpca.3c04382
   
   for DFT-D4:
   * E. Caldeweyher, C. Bannwarth and S. Grimme, J. Chem. Phys., 2017,
     147, 034112. DOI: 10.1063/1.4993215
   * E. Caldeweyher, S. Ehlert, A. Hansen, H. Neugebauer, S. Spicher,
     C. Bannwarth and S. Grimme, J. Chem. Phys., 2019, 150, 154122.
     DOI: 10.1063/1.5090222
   * E. Caldeweyher, J.-M. Mewes, S. Ehlert and S. Grimme, Phys. Chem. Chem. Phys.
     2020, 22, 8499-8512. DOI: 10.1039/D0CP00502A
   
   for sTDA-xTB:
   * S. Grimme and C. Bannwarth, J. Chem. Phys., 2016, 145, 054103.
     DOI: 10.1063/1.4959605
   
   in the mass-spec context:
   * V. Asgeirsson, C. Bauer and S. Grimme, Chem. Sci., 2017, 8, 4879.
     DOI: 10.1039/c7sc00601b
   * J. Koopman and S. Grimme, ACS Omega 2019, 4, 12, 15120-15133.
     DOI: 10.1021/acsomega.9b02011
   
   for metadynamics refer to:
   * S. Grimme, J. Chem. Theory Comput., 2019, 155, 2847-2862
     DOI: 10.1021/acs.jctc.9b00143
   
   for SPH calculations refer to:
   * S. Spicher and S. Grimme, J. Chem. Theory Comput., 2021, 17, 1701-1714
     DOI: 10.1021/acs.jctc.0c01306
   
   for ONIOM refer to:
   * C. Plett, A. Katbashev, S. Ehlert, S. Grimme, M. Bursch,
     Phys. Chem. Chem. Phys., 2023, 25, 17860-17868. DOI: 10.1039/D3CP02178E
   
   for DIPRO refer to:
   * J. Kohn, N. Gildemeister, S. Grimme, D. Fazzi, A. Hansen,
     J. Chem. Phys., 2023, just accepted.
   
   for PTB refer to:
   * S. Grimme, M. Mueller, A. Hansen, J. Chem. Phys., 2023, 158, 124111.
     DOI: 10.1063/5.0137838
   
   with help from (in alphabetical order)
   P. Atkinson, C. Bannwarth, F. Bohle, G. Brandenburg, E. Caldeweyher
   M. Checinski, S. Dohm, S. Ehlert, S. Ehrlich, I. Gerasimov, C. Hölzer
   A. Katbashev, J. Kohn, J. Koopman, C. Lavigne, S. Lehtola, F. März, M. Müller,
   F. Musil, H. Neugebauer, J. Pisarek, C. Plett, P. Pracht, F. Pultar,
   J. Seibert, P. Shushkov, S. Spicher, M. Stahn, M. Steiner, T. Strunk,
   J. Stückrath, T. Rose, and J. Unsleber
   
 * started run on 2025/07/06 at 00:35:10.285     
   ID    Z sym.   atoms
    1    6 C      1-7
    2    8 O      8, 17, 18
    3    1 H      9-16, 19, 20

           -------------------------------------------------
          |                Calculation Setup                |
           -------------------------------------------------

          program call               : /home/madsr2d2/orca_6_1_0/otool_xtb BnOH_H2O2_ts_opt_XTB.xyz --grad -c 0 -u 0 -P 12 --namespace BnOH_H2O2_ts_opt --input BnOH_H2O2_ts_opt_XTB.input.tmp --alpb WATER --acc 0.200000
          calculation namespace      : BnOH_H2O2_ts_opt
          coordinate file            : BnOH_H2O2_ts_opt_XTB.xyz
          omp threads                :                    12


molecular fragmentation (1/2 indicates fragments):
11111111111111111212
# atoms in fragment 1/2:    18     2
 fragment masses (1/2) :      125.15       17.01
CMA distance (Bohr)    :   9.074
constraining FC (au)   :  0.0500

           -------------------------------------------------
          |                 G F N 2 - x T B                 |
           -------------------------------------------------

        Reference                      10.1021/acs.jctc.8b01176
      * Hamiltonian:
        H0-scaling (s, p, d)           1.850000    2.230000    2.230000
        zeta-weighting                 0.500000
      * Dispersion:
        s8                             2.700000
        a1                             0.520000
        a2                             5.000000
        s9                             5.000000
      * Repulsion:
        kExp                           1.500000    1.000000
        rExp                           1.000000
      * Coulomb:
        alpha                          2.000000
        third order                    shell-resolved
        anisotropic                    true
        a3                             3.000000
        a5                             4.000000
        cn-shift                       1.200000
        cn-exp                         4.000000
        max-rad                        5.000000

      * Solvation model:               ALPB
        Solvent                        WATER
        Parameter file                 internal GFN2-xTB/ALPB
        Dielectric constant                8.0200E+01
        Reference state                gsolv [1 M gas/solution]
        Free energy shift                  1.0808E-03 Eh       6.7819E-01 kcal/mol
        Temperature                        2.9815E+02 K
        Density                            1.0000E+00 kg/L
        Solvent mass                       1.8000E+01 g/mol
        Interaction kernel             P16
        Born radius scaling (c1)           1.4744E+00
        Born radii integrator          GBOBC
        Born offset                        0.0000E+00 a0       0.0000E+00 AA
        H-bond correction              true
        Ion screening                  false
        Surface tension                    1.0000E-05 Eh       1.5569E+01 dyn/cm
        Grid points                               230 per atom

          ...................................................
          :                      SETUP                      :
          :.................................................:
          :  # basis functions                  50          :
          :  # atomic orbitals                  50          :
          :  # shells                           30          :
          :  # electrons                        56          :
          :  max. iterations                   250          :
          :  Hamiltonian                  GFN2-xTB          :
          :  restarted?                      false          :
          :  GBSA solvation                   true          :
          :  PC potential                    false          :
          :  electronic temp.          300.0000000     K    :
          :  accuracy                    0.2000000          :
          :  -> integral cutoff          0.3198970E+02      :
          :  -> integral neglect         0.2000000E-08      :
          :  -> SCF convergence          0.2000000E-06 Eh   :
          :  -> wf. convergence          0.2000000E-04 e    :
          :  Broyden damping             0.4000000          :
          :  net charge                          0          :
          :  unpaired electrons                  0          :
          ...................................................

 iter      E             dE          RMSdq      gap      omega  full diag
   1    -32.4035620 -0.324036E+02  0.550E+00    2.75       0.0  T
   2    -32.4662158 -0.626539E-01  0.324E+00    1.60       1.0  T
   3    -32.4893114 -0.230955E-01  0.245E+00    2.18       1.0  T
   4    -32.5273562 -0.380449E-01  0.848E-01    1.58       1.0  T
   5    -32.5398577 -0.125014E-01  0.135E-01    1.65       1.0  T
   6    -32.5396137  0.244020E-03  0.149E-01    1.67       1.0  T
   7    -32.5399378 -0.324151E-03  0.373E-02    1.64       1.0  T
   8    -32.5399476 -0.975214E-05  0.160E-02    1.64       1.4  T
   9    -32.5399465  0.103985E-05  0.167E-02    1.65       1.3  T
  10    -32.5399503 -0.374590E-05  0.590E-03    1.65       3.8  T
  11    -32.5399505 -0.255135E-06  0.342E-03    1.65       6.5  T
  12    -32.5399507 -0.181216E-06  0.977E-04    1.65      22.9  T
  13    -32.5399507 -0.145851E-07  0.180E-04    1.65     124.0  T
  14    -32.5399507  0.216239E-09  0.170E-04    1.65     131.6  T

   *** convergence criteria satisfied after 14 iterations ***

         #    Occupation            Energy/Eh            Energy/eV
      -------------------------------------------------------------
         1        2.0000           -0.7311631             -19.8960
       ...           ...                  ...                  ...
        22        2.0000           -0.4597541             -12.5105
        23        2.0000           -0.4357470             -11.8573
        24        2.0000           -0.4269394             -11.6176
        25        2.0000           -0.4226060             -11.4997
        26        2.0000           -0.4129025             -11.2356
        27        2.0000           -0.3898912             -10.6095
        28        2.0000           -0.3718479             -10.1185 (HOMO)
        29                         -0.3113160              -8.4713 (LUMO)
        30                         -0.2297269              -6.2512
        31                         -0.2175119              -5.9188
        32                         -0.0977491              -2.6599
        33                          0.0560710               1.5258
       ...                                ...                  ...
        50                          0.6564419              17.8627
      -------------------------------------------------------------
                  HL-Gap            0.0605318 Eh            1.6472 eV
             Fermi-level           -0.3415820 Eh           -9.2949 eV

 SCC (total)                   0 d,  0 h,  0 min,  0.013 sec
 SCC setup                      ...        0 min,  0.000 sec (  3.207%)
 Dispersion                     ...        0 min,  0.000 sec (  1.152%)
 classical contributions        ...        0 min,  0.000 sec (  0.366%)
 integral evaluation            ...        0 min,  0.000 sec (  3.723%)
 iterations                     ...        0 min,  0.011 sec ( 80.944%)
 molecular gradient             ...        0 min,  0.001 sec (  9.651%)
 printout                       ...        0 min,  0.000 sec (  0.786%)

         :::::::::::::::::::::::::::::::::::::::::::::::::::::
         ::                     SUMMARY                     ::
         :::::::::::::::::::::::::::::::::::::::::::::::::::::
         :: total energy             -32.138123089145 Eh    ::
         :: total w/o Gsasa/hb       -32.122028912841 Eh    ::
         :: gradient norm              0.024545060970 Eh/a0 ::
         :: HOMO-LUMO gap              1.647155279241 eV    ::
         ::.................................................::
         :: SCC energy               -32.539872251281 Eh    ::
         :: -> isotropic ES            0.144707702281 Eh    ::
         :: -> anisotropic ES         -0.006869414085 Eh    ::
         :: -> anisotropic XC          0.009863473901 Eh    ::
         :: -> dispersion             -0.013832173172 Eh    ::
         :: -> Gsolv                  -0.053386681232 Eh    ::
         ::    -> Gelec               -0.037292504928 Eh    ::
         ::    -> Gsasa                0.002093756076 Eh    ::
         ::    -> Ghb                 -0.019268692077 Eh    ::
         ::    -> Gshift               0.001080759698 Eh    ::
         :: repulsion energy           0.401749162136 Eh    ::
         :: add. restraining           0.000000000000 Eh    ::
         :: total charge              -0.000000000000 e     ::
         :::::::::::::::::::::::::::::::::::::::::::::::::::::


Property printout bound to 'properties.out'

           -------------------------------------------------
          | TOTAL ENERGY              -32.138123089145 Eh   |
          | GRADIENT NORM               0.024545060970 Eh/α |
          | HOMO-LUMO GAP               1.647155279241 eV   |
           -------------------------------------------------

------------------------------------------------------------------------
 * finished run on 2025/07/06 at 00:35:10.308     
------------------------------------------------------------------------
 total:
 * wall-time:     0 d,  0 h,  0 min,  0.022 sec
 *  cpu-time:     0 d,  0 h,  0 min,  0.042 sec
 * ratio c/w:     1.912 speedup
 SCF:
 * wall-time:     0 d,  0 h,  0 min,  0.014 sec
 *  cpu-time:     0 d,  0 h,  0 min,  0.031 sec
 * ratio c/w:     2.318 speedup


-------------------------   --------------------
FINAL SINGLE POINT ENERGY       -32.138123089140
-------------------------   --------------------


-------------
DIPOLE MOMENT
-------------
                                X             Y             Z
Total Dipole Moment    :     -1.37700       3.26400      -0.81300
                        -----------------------------------------
Magnitude (a.u.)       :      3.63467
Magnitude (Debye)      :      9.23859


------------------
CARTESIAN GRADIENT
------------------

   1   C   :   -0.000015051   -0.000004179    0.000011155
   2   C   :    0.000014151   -0.000000878    0.000005147
   3   C   :   -0.000001367   -0.000002398   -0.000009998
   4   C   :   -0.000014621   -0.000002039    0.000014320
   5   C   :    0.000012322    0.000018984    0.000009737
   6   C   :    0.000025114   -0.000027077   -0.000016415
   7   C   :   -0.000066735    0.000088319   -0.000049239
   8   O   :    0.000041888   -0.000017702   -0.000041637
   9   H   :    0.000004998   -0.000001746   -0.000001321
  10   H   :    0.000002688   -0.000003354    0.000002519
  11   H   :   -0.000001099    0.000002273   -0.000000368
  12   H   :    0.000000821    0.000002026   -0.000000604
  13   H   :   -0.000004715   -0.000001522   -0.000000927
  14   H   :    0.007024132   -0.015434690    0.003845641
  15   H   :   -0.000010338   -0.000013918    0.000008549
  16   H   :   -0.000012172   -0.000009622   -0.000013739
  17   O   :   -0.006986876    0.015398367   -0.003760629
  18   O   :   -0.000069862    0.000059445   -0.000013102
  19   H   :    0.000038042   -0.000029709    0.000006945
  20   H   :    0.000018680   -0.000020581    0.000003964

Difference to translation invariance:
           :   -0.0000000000   -0.0000000000    0.0000000000

Difference to rotation invariance:
           :    0.0001093713    0.0001395795   -0.0000160819

Norm of the Cartesian gradient     ...    0.0245450610
RMS gradient                       ...    0.0031687537
MAX gradient                       ...    0.0154346901
      -----------------------------------------------------------      
     |                   =====================                   |     
     |                           x T B                           |     
     |                   =====================                   |     
     |                         S. Grimme                         |     
     |          Mulliken Center for Theoretical Chemistry        |     
     |                    University of Bonn                     |     
      -----------------------------------------------------------      

   * xtb version 6.7.1 (edcfbbe) compiled by 'albert@albert-system' on 2024-07-22

   xtb is free software: you can redistribute it and/or modify it under
   the terms of the GNU Lesser General Public License as published by
   the Free Software Foundation, either version 3 of the License, or
   (at your option) any later version.
   
   xtb is distributed in the hope that it will be useful,
   but WITHOUT ANY WARRANTY; without even the implied warranty of
   MERCHANTABILITY or FITNESS FOR A PARTICULAR PURPOSE.  See the
   GNU Lesser General Public License for more details.
   
   Cite this work as:
   * C. Bannwarth, E. Caldeweyher, S. Ehlert, A. Hansen, P. Pracht,
     J. Seibert, S. Spicher, S. Grimme, WIREs Comput. Mol. Sci., 2020, 11,
     e01493. DOI: 10.1002/wcms.1493
   
   for GFN2-xTB:
   * C. Bannwarth, S. Ehlert and S. Grimme., J. Chem. Theory Comput., 2019,
     15, 1652-1671. DOI: 10.1021/acs.jctc.8b01176
   for GFN1-xTB:
   * S. Grimme, C. Bannwarth, P. Shushkov, J. Chem. Theory Comput., 2017,
     13, 1989-2009. DOI: 10.1021/acs.jctc.7b00118
   for GFN0-xTB:
   * P. Pracht, E. Caldeweyher, S. Ehlert, S. Grimme, ChemRxiv, 2019, preprint.
     DOI: 10.26434/chemrxiv.8326202.v1
   for GFN-FF:
   * S. Spicher and S. Grimme, Angew. Chem. Int. Ed., 2020, 59, 15665-15673.
     DOI: 10.1002/anie.202004239
   
   for ALPB and GBSA implicit solvation:
   * S. Ehlert, M. Stahn, S. Spicher, S. Grimme, J. Chem. Theory Comput.,
     2021, 17, 4250-4261. DOI: 10.1021/acs.jctc.1c00471
   
   for ddCOSMO and CPCM-X implicit solvation:
   * M. Stahn, S. Ehlert, S. Grimme, J. Phys. Chem. A,
     2023, XX, XXXX-XXXX. DOI: 10.1021/acs.jpca.3c04382
   
   for DFT-D4:
   * E. Caldeweyher, C. Bannwarth and S. Grimme, J. Chem. Phys., 2017,
     147, 034112. DOI: 10.1063/1.4993215
   * E. Caldeweyher, S. Ehlert, A. Hansen, H. Neugebauer, S. Spicher,
     C. Bannwarth and S. Grimme, J. Chem. Phys., 2019, 150, 154122.
     DOI: 10.1063/1.5090222
   * E. Caldeweyher, J.-M. Mewes, S. Ehlert and S. Grimme, Phys. Chem. Chem. Phys.
     2020, 22, 8499-8512. DOI: 10.1039/D0CP00502A
   
   for sTDA-xTB:
   * S. Grimme and C. Bannwarth, J. Chem. Phys., 2016, 145, 054103.
     DOI: 10.1063/1.4959605
   
   in the mass-spec context:
   * V. Asgeirsson, C. Bauer and S. Grimme, Chem. Sci., 2017, 8, 4879.
     DOI: 10.1039/c7sc00601b
   * J. Koopman and S. Grimme, ACS Omega 2019, 4, 12, 15120-15133.
     DOI: 10.1021/acsomega.9b02011
   
   for metadynamics refer to:
   * S. Grimme, J. Chem. Theory Comput., 2019, 155, 2847-2862
     DOI: 10.1021/acs.jctc.9b00143
   
   for SPH calculations refer to:
   * S. Spicher and S. Grimme, J. Chem. Theory Comput., 2021, 17, 1701-1714
     DOI: 10.1021/acs.jctc.0c01306
   
   for ONIOM refer to:
   * C. Plett, A. Katbashev, S. Ehlert, S. Grimme, M. Bursch,
     Phys. Chem. Chem. Phys., 2023, 25, 17860-17868. DOI: 10.1039/D3CP02178E
   
   for DIPRO refer to:
   * J. Kohn, N. Gildemeister, S. Grimme, D. Fazzi, A. Hansen,
     J. Chem. Phys., 2023, just accepted.
   
   for PTB refer to:
   * S. Grimme, M. Mueller, A. Hansen, J. Chem. Phys., 2023, 158, 124111.
     DOI: 10.1063/5.0137838
   
   with help from (in alphabetical order)
   P. Atkinson, C. Bannwarth, F. Bohle, G. Brandenburg, E. Caldeweyher
   M. Checinski, S. Dohm, S. Ehlert, S. Ehrlich, I. Gerasimov, C. Hölzer
   A. Katbashev, J. Kohn, J. Koopman, C. Lavigne, S. Lehtola, F. März, M. Müller,
   F. Musil, H. Neugebauer, J. Pisarek, C. Plett, P. Pracht, F. Pultar,
   J. Seibert, P. Shushkov, S. Spicher, M. Stahn, M. Steiner, T. Strunk,
   J. Stückrath, T. Rose, and J. Unsleber
   
 * started run on 2025/07/06 at 00:35:10.312     
   ID    Z sym.   atoms
    1    6 C      1-7
    2    8 O      8, 17, 18
    3    1 H      9-16, 19, 20

           -------------------------------------------------
          |                Calculation Setup                |
           -------------------------------------------------

          program call               : /home/madsr2d2/orca_6_1_0/otool_xtb BnOH_H2O2_ts_opt_XTB.xyz --hess -c 0 -u 0 -P 12 --namespace BnOH_H2O2_ts_opt --input BnOH_H2O2_ts_opt_XTB.input.tmp --alpb WATER --acc 0.200000
          calculation namespace      : BnOH_H2O2_ts_opt
          coordinate file            : BnOH_H2O2_ts_opt_XTB.xyz
          omp threads                :                    12


molecular fragmentation (1/2 indicates fragments):
11111111111111111212
# atoms in fragment 1/2:    18     2
 fragment masses (1/2) :      125.15       17.01
CMA distance (Bohr)    :   9.074
constraining FC (au)   :  0.0500

           -------------------------------------------------
          |                 G F N 2 - x T B                 |
           -------------------------------------------------

        Reference                      10.1021/acs.jctc.8b01176
      * Hamiltonian:
        H0-scaling (s, p, d)           1.850000    2.230000    2.230000
        zeta-weighting                 0.500000
      * Dispersion:
        s8                             2.700000
        a1                             0.520000
        a2                             5.000000
        s9                             5.000000
      * Repulsion:
        kExp                           1.500000    1.000000
        rExp                           1.000000
      * Coulomb:
        alpha                          2.000000
        third order                    shell-resolved
        anisotropic                    true
        a3                             3.000000
        a5                             4.000000
        cn-shift                       1.200000
        cn-exp                         4.000000
        max-rad                        5.000000

      * Solvation model:               ALPB
        Solvent                        WATER
        Parameter file                 internal GFN2-xTB/ALPB
        Dielectric constant                8.0200E+01
        Reference state                gsolv [1 M gas/solution]
        Free energy shift                  1.0808E-03 Eh       6.7819E-01 kcal/mol
        Temperature                        2.9815E+02 K
        Density                            1.0000E+00 kg/L
        Solvent mass                       1.8000E+01 g/mol
        Interaction kernel             P16
        Born radius scaling (c1)           1.4744E+00
        Born radii integrator          GBOBC
        Born offset                        0.0000E+00 a0       0.0000E+00 AA
        H-bond correction              true
        Ion screening                  false
        Surface tension                    1.0000E-05 Eh       1.5569E+01 dyn/cm
        Grid points                               230 per atom
q/qsh data taken from xtbrestart
CAMM data taken from xtbrestart

          ...................................................
          :                      SETUP                      :
          :.................................................:
          :  # basis functions                  50          :
          :  # atomic orbitals                  50          :
          :  # shells                           30          :
          :  # electrons                        56          :
          :  max. iterations                   250          :
          :  Hamiltonian                  GFN2-xTB          :
          :  restarted?                       true          :
          :  GBSA solvation                   true          :
          :  PC potential                    false          :
          :  electronic temp.          300.0000000     K    :
          :  accuracy                    0.2000000          :
          :  -> integral cutoff          0.3198970E+02      :
          :  -> integral neglect         0.2000000E-08      :
          :  -> SCF convergence          0.2000000E-06 Eh   :
          :  -> wf. convergence          0.2000000E-04 e    :
          :  Broyden damping             0.4000000          :
          :  net charge                          0          :
          :  unpaired electrons                  0          :
          ...................................................

 iter      E             dE          RMSdq      gap      omega  full diag
   1    -32.5399507 -0.325400E+02  0.956E-05    1.65       0.0  T
   2    -32.5399507  0.135067E-09  0.123E-04    1.65     181.3  T
   3    -32.5399507 -0.284203E-09  0.118E-05    1.65    1895.6  T

   *** convergence criteria satisfied after 3 iterations ***

         #    Occupation            Energy/Eh            Energy/eV
      -------------------------------------------------------------
         1        2.0000           -0.7311635             -19.8960
       ...           ...                  ...                  ...
        22        2.0000           -0.4597538             -12.5105
        23        2.0000           -0.4357472             -11.8573
        24        2.0000           -0.4269394             -11.6176
        25        2.0000           -0.4226061             -11.4997
        26        2.0000           -0.4129025             -11.2356
        27        2.0000           -0.3898882             -10.6094
        28        2.0000           -0.3718463             -10.1185 (HOMO)
        29                         -0.3113154              -8.4713 (LUMO)
        30                         -0.2297270              -6.2512
        31                         -0.2175121              -5.9188
        32                         -0.0977492              -2.6599
        33                          0.0560710               1.5258
       ...                                ...                  ...
        50                          0.6564418              17.8627
      -------------------------------------------------------------
                  HL-Gap            0.0605309 Eh            1.6471 eV
             Fermi-level           -0.3415809 Eh           -9.2949 eV

 SCC (total)                   0 d,  0 h,  0 min,  0.006 sec
 SCC setup                      ...        0 min,  0.000 sec (  3.926%)
 Dispersion                     ...        0 min,  0.000 sec (  2.038%)
 classical contributions        ...        0 min,  0.000 sec (  0.855%)
 integral evaluation            ...        0 min,  0.000 sec (  7.093%)
 iterations                     ...        0 min,  0.004 sec ( 65.531%)
 molecular gradient             ...        0 min,  0.001 sec ( 18.506%)
 printout                       ...        0 min,  0.000 sec (  1.765%)

         :::::::::::::::::::::::::::::::::::::::::::::::::::::
         ::                     SUMMARY                     ::
         :::::::::::::::::::::::::::::::::::::::::::::::::::::
         :: total energy             -32.138123089561 Eh    ::
         :: total w/o Gsasa/hb       -32.122028855095 Eh    ::
         :: gradient norm              0.024550644250 Eh/a0 ::
         :: HOMO-LUMO gap              1.647130437146 eV    ::
         ::.................................................::
         :: SCC energy               -32.539872251697 Eh    ::
         :: -> isotropic ES            0.144697017223 Eh    ::
         :: -> anisotropic ES         -0.006869058062 Eh    ::
         :: -> anisotropic XC          0.009863347811 Eh    ::
         :: -> dispersion             -0.013832187521 Eh    ::
         :: -> Gsolv                  -0.053387447529 Eh    ::
         ::    -> Gelec               -0.037293213063 Eh    ::
         ::    -> Gsasa                0.002093756076 Eh    ::
         ::    -> Ghb                 -0.019268750240 Eh    ::
         ::    -> Gshift               0.001080759698 Eh    ::
         :: repulsion energy           0.401749162136 Eh    ::
         :: add. restraining           0.000000000000 Eh    ::
         :: total charge               0.000000000000 e     ::
         :::::::::::::::::::::::::::::::::::::::::::::::::::::

           ------------------------------------------------- 
          |                Numerical Hessian                |
           ------------------------------------------------- 
step length          :   0.00500
SCC accuracy         :   0.30000
Hessian scale factor :   1.00000
frozen atoms in %    :   0.00000    0
RMS gradient         :   0.02455 !! INCOMPLETELY OPTIMIZED GEOMETRY !!
estimated CPU  time      0.06 min
estimated wall time      0.01 min

writing file <hessian>.

 projected vibrational frequencies (cm⁻¹)
eigval :       -0.00    -0.00    -0.00     0.00     0.00     0.00
eigval :     -257.10   -27.28    27.99   111.93   124.30   157.32
eigval :      186.79   207.20   254.00   287.57   364.56   384.84
eigval :      412.84   448.85   489.19   579.39   587.70   650.97
eigval :      678.35   703.13   765.97   789.56   826.99   865.65
eigval :      902.94   926.94   931.16   973.52   983.05  1077.16
eigval :     1114.06  1125.15  1165.29  1178.40  1190.67  1232.12
eigval :     1278.52  1303.37  1328.02  1351.79  1433.95  1454.00
eigval :     1570.21  1583.03  2005.66  2978.75  3085.32  3088.46
eigval :     3094.77  3102.47  3109.18  3414.06  3548.08  3674.88

Property printout bound to 'properties.out'
Molecule has no symmetry elements
It seems to be the C1 point group
imag cut-off (cm-1) :    5.00
 found            2  significant imaginary frequencies
 writing imag mode distorted coords to xtbhess.xyz
 for further optimization.

           -------------------------------------------------
          | TOTAL ENERGY              -32.138123089181 Eh   |
          | TOTAL ENTHALPY            -31.978144555951 Eh   |
          | TOTAL FREE ENERGY         -32.025794434259 Eh   |
          | GRADIENT NORM               0.024551010148 Eh/α |
          | HOMO-LUMO GAP               1.647129111535 eV   |
           -------------------------------------------------
########################################################################
[WARNING] Runtime exception occurred
-1- hessian_numhess: Hessian on incompletely optimized geometry!
########################################################################

------------------------------------------------------------------------
 * finished run on 2025/07/06 at 00:35:10.438     
------------------------------------------------------------------------
 total:
 * wall-time:     0 d,  0 h,  0 min,  0.126 sec
 *  cpu-time:     0 d,  0 h,  0 min,  1.047 sec
 * ratio c/w:     8.332 speedup
 SCF:
 * wall-time:     0 d,  0 h,  0 min,  0.006 sec
 *  cpu-time:     0 d,  0 h,  0 min,  0.016 sec
 * ratio c/w:     2.548 speedup
 analytical hessian:
 * wall-time:     0 d,  0 h,  0 min,  0.111 sec
 *  cpu-time:     0 d,  0 h,  0 min,  1.020 sec
 * ratio c/w:     9.194 speedup


-------------------------   --------------------
FINAL SINGLE POINT ENERGY       -32.138123089140
-------------------------   --------------------


-------------
DIPOLE MOMENT
-------------
                                X             Y             Z
Total Dipole Moment    :     -1.37700       3.26400      -0.81300
                        -----------------------------------------
Magnitude (a.u.)       :      3.63467
Magnitude (Debye)      :      9.23859


-----------------------
VIBRATIONAL FREQUENCIES
-----------------------

Scaling factor for frequencies =  1.000000000  (already applied!)

     0:       0.00 cm**-1
     1:       0.00 cm**-1
     2:       0.00 cm**-1
     3:       0.00 cm**-1
     4:       0.00 cm**-1
     5:       0.00 cm**-1
     6:    -257.10 cm**-1  ***imaginary mode***
     7:     -27.28 cm**-1  ***imaginary mode***
     8:      27.99 cm**-1
     9:     111.93 cm**-1
    10:     124.29 cm**-1
    11:     157.32 cm**-1
    12:     186.79 cm**-1
    13:     207.20 cm**-1
    14:     254.00 cm**-1
    15:     287.57 cm**-1
    16:     364.56 cm**-1
    17:     384.83 cm**-1
    18:     412.83 cm**-1
    19:     448.84 cm**-1
    20:     489.18 cm**-1
    21:     579.39 cm**-1
    22:     587.69 cm**-1
    23:     650.96 cm**-1
    24:     678.33 cm**-1
    25:     703.12 cm**-1
    26:     765.96 cm**-1
    27:     789.55 cm**-1
    28:     826.97 cm**-1
    29:     865.62 cm**-1
    30:     902.92 cm**-1
    31:     926.92 cm**-1
    32:     931.13 cm**-1
    33:     973.50 cm**-1
    34:     983.04 cm**-1
    35:    1077.14 cm**-1
    36:    1114.04 cm**-1
    37:    1125.13 cm**-1
    38:    1165.27 cm**-1
    39:    1178.36 cm**-1
    40:    1190.64 cm**-1
    41:    1232.09 cm**-1
    42:    1278.48 cm**-1
    43:    1303.34 cm**-1
    44:    1328.00 cm**-1
    45:    1351.77 cm**-1
    46:    1433.93 cm**-1
    47:    1453.98 cm**-1
    48:    1570.19 cm**-1
    49:    1583.01 cm**-1
    50:    2005.60 cm**-1
    51:    2978.67 cm**-1
    52:    3085.23 cm**-1
    53:    3088.37 cm**-1
    54:    3094.69 cm**-1
    55:    3102.38 cm**-1
    56:    3109.09 cm**-1
    57:    3413.97 cm**-1
    58:    3547.98 cm**-1
    59:    3674.78 cm**-1


------------
NORMAL MODES
------------

These modes are the Cartesian displacements weighted by the diagonal matrix
M(i,i)=1/sqrt(m[i]) where m[i] is the mass of the displaced atom
Thus, these vectors are normalized but *not* orthogonal

                  0          1          2          3          4          5    
      0       0.000000   0.000000   0.000000   0.000000   0.000000   0.000000
      1       0.000000   0.000000   0.000000   0.000000   0.000000   0.000000
      2       0.000000   0.000000   0.000000   0.000000   0.000000   0.000000
      3       0.000000   0.000000   0.000000   0.000000   0.000000   0.000000
      4       0.000000   0.000000   0.000000   0.000000   0.000000   0.000000
      5       0.000000   0.000000   0.000000   0.000000   0.000000   0.000000
      6       0.000000   0.000000   0.000000   0.000000   0.000000   0.000000
      7       0.000000   0.000000   0.000000   0.000000   0.000000   0.000000
      8       0.000000   0.000000   0.000000   0.000000   0.000000   0.000000
      9       0.000000   0.000000   0.000000   0.000000   0.000000   0.000000
     10       0.000000   0.000000   0.000000   0.000000   0.000000   0.000000
     11       0.000000   0.000000   0.000000   0.000000   0.000000   0.000000
     12       0.000000   0.000000   0.000000   0.000000   0.000000   0.000000
     13       0.000000   0.000000   0.000000   0.000000   0.000000   0.000000
     14       0.000000   0.000000   0.000000   0.000000   0.000000   0.000000
     15       0.000000   0.000000   0.000000   0.000000   0.000000   0.000000
     16       0.000000   0.000000   0.000000   0.000000   0.000000   0.000000
     17       0.000000   0.000000   0.000000   0.000000   0.000000   0.000000
     18       0.000000   0.000000   0.000000   0.000000   0.000000   0.000000
     19       0.000000   0.000000   0.000000   0.000000   0.000000   0.000000
     20       0.000000   0.000000   0.000000   0.000000   0.000000   0.000000
     21       0.000000   0.000000   0.000000   0.000000   0.000000   0.000000
     22       0.000000   0.000000   0.000000   0.000000   0.000000   0.000000
     23       0.000000   0.000000   0.000000   0.000000   0.000000   0.000000
     24       0.000000   0.000000   0.000000   0.000000   0.000000   0.000000
     25       0.000000   0.000000   0.000000   0.000000   0.000000   0.000000
     26       0.000000   0.000000   0.000000   0.000000   0.000000   0.000000
     27       0.000000   0.000000   0.000000   0.000000   0.000000   0.000000
     28       0.000000   0.000000   0.000000   0.000000   0.000000   0.000000
     29       0.000000   0.000000   0.000000   0.000000   0.000000   0.000000
     30       0.000000   0.000000   0.000000   0.000000   0.000000   0.000000
     31       0.000000   0.000000   0.000000   0.000000   0.000000   0.000000
     32       0.000000   0.000000   0.000000   0.000000   0.000000   0.000000
     33       0.000000   0.000000   0.000000   0.000000   0.000000   0.000000
     34       0.000000   0.000000   0.000000   0.000000   0.000000   0.000000
     35       0.000000   0.000000   0.000000   0.000000   0.000000   0.000000
     36       0.000000   0.000000   0.000000   0.000000   0.000000   0.000000
     37       0.000000   0.000000   0.000000   0.000000   0.000000   0.000000
     38       0.000000   0.000000   0.000000   0.000000   0.000000   0.000000
     39       0.000000   0.000000   0.000000   0.000000   0.000000   0.000000
     40       0.000000   0.000000   0.000000   0.000000   0.000000   0.000000
     41       0.000000   0.000000   0.000000   0.000000   0.000000   0.000000
     42       0.000000   0.000000   0.000000   0.000000   0.000000   0.000000
     43       0.000000   0.000000   0.000000   0.000000   0.000000   0.000000
     44       0.000000   0.000000   0.000000   0.000000   0.000000   0.000000
     45       0.000000   0.000000   0.000000   0.000000   0.000000   0.000000
     46       0.000000   0.000000   0.000000   0.000000   0.000000   0.000000
     47       0.000000   0.000000   0.000000   0.000000   0.000000   0.000000
     48       0.000000   0.000000   0.000000   0.000000   0.000000   0.000000
     49       0.000000   0.000000   0.000000   0.000000   0.000000   0.000000
     50       0.000000   0.000000   0.000000   0.000000   0.000000   0.000000
     51       0.000000   0.000000   0.000000   0.000000   0.000000   0.000000
     52       0.000000   0.000000   0.000000   0.000000   0.000000   0.000000
     53       0.000000   0.000000   0.000000   0.000000   0.000000   0.000000
     54       0.000000   0.000000   0.000000   0.000000   0.000000   0.000000
     55       0.000000   0.000000   0.000000   0.000000   0.000000   0.000000
     56       0.000000   0.000000   0.000000   0.000000   0.000000   0.000000
     57       0.000000   0.000000   0.000000   0.000000   0.000000   0.000000
     58       0.000000   0.000000   0.000000   0.000000   0.000000   0.000000
     59       0.000000   0.000000   0.000000   0.000000   0.000000   0.000000
                  6          7          8          9         10         11    
      0       0.006409   0.126461   0.018516  -0.000971   0.006122   0.002776
      1       0.028234  -0.082726  -0.220924   0.027135   0.003470   0.094515
      2      -0.003016  -0.031602  -0.011072  -0.003442  -0.003973  -0.011423
      3       0.017240   0.149576   0.019759   0.005453   0.003855   0.015409
      4      -0.004976  -0.200476  -0.159587  -0.054404   0.032255  -0.008968
      5       0.003385   0.028518   0.011409  -0.003011  -0.005017   0.007678
      6       0.003665   0.111091  -0.023625   0.011916   0.004400   0.018732
      7      -0.005720  -0.189632   0.084668  -0.072691   0.021597  -0.104007
      8       0.006750   0.062483   0.008532  -0.006271  -0.003347   0.021564
      9      -0.021691   0.049706  -0.066853   0.010160   0.006573   0.002713
     10      -0.012689  -0.055273   0.255642   0.015255  -0.020475  -0.020330
     11      -0.008061   0.035509  -0.014868  -0.012027  -0.000478   0.011177
     12      -0.041414   0.027112  -0.066853   0.005343   0.007566  -0.009198
     13       0.015919   0.060647   0.183360   0.087512  -0.039185   0.086517
     14      -0.033209  -0.025075  -0.037498  -0.012345  -0.000465  -0.008579
     15      -0.012290   0.065754  -0.025310   0.001304   0.006865  -0.004755
     16       0.079010   0.044069  -0.045685   0.073835  -0.023895   0.090407
     17      -0.036884  -0.058372  -0.034845  -0.005992  -0.002201  -0.014189
     18      -0.156697   0.044811  -0.025453   0.006107   0.005961   0.007870
     19       0.292416   0.128979  -0.085058   0.042657  -0.028811  -0.035583
     20      -0.100063  -0.113521  -0.055994   0.004856   0.002274   0.007234
     21       0.001387  -0.003110  -0.042931   0.032304   0.007865   0.068532
     22       0.019608   0.148632  -0.057591  -0.144097   0.127142  -0.012233
     23       0.024535  -0.119653  -0.057018  -0.010521   0.022722   0.023469
     24       0.018852   0.157761   0.053414  -0.004676   0.006187   0.003670
     25       0.030751  -0.101174  -0.410082   0.030097   0.011460   0.145125
     26      -0.017864  -0.058354  -0.012545  -0.000412  -0.005553  -0.020625
     27       0.020571   0.197849   0.054166   0.005792   0.002367   0.024365
     28      -0.028838  -0.307747  -0.298906  -0.110113   0.062057  -0.033863
     29       0.005236   0.049653   0.030154   0.000384  -0.007241   0.011860
     30       0.010108   0.129965  -0.023849   0.018116   0.002608   0.031645
     31      -0.010332  -0.288835   0.141958  -0.149769   0.043481  -0.225404
     32       0.026592   0.110599   0.024879  -0.003993  -0.004076   0.038142
     33      -0.038479   0.019635  -0.100574   0.013810   0.006184   0.000356
     34      -0.031550  -0.046052   0.446196   0.015854  -0.034533  -0.056648
     35       0.011390   0.062192  -0.016999  -0.015591   0.002434   0.019859
     36      -0.055258  -0.021326  -0.098717   0.005533   0.009038  -0.016891
     37       0.021612   0.159790   0.313114   0.139497  -0.064082   0.122980
     38      -0.037135  -0.046171  -0.055162  -0.015267   0.001424  -0.013346
     39      -0.208819   0.139014  -0.053373  -0.001983  -0.024254  -0.190315
     40      -0.456957   0.133023  -0.093348   0.089854  -0.094295  -0.119716
     41       0.033323  -0.155575  -0.092393   0.174823  -0.156034  -0.066524
     42       0.119859   0.048803  -0.000851   0.001161   0.025297   0.064875
     43      -0.263367   0.135086  -0.117174   0.127512  -0.137045  -0.155083
     44       0.066797  -0.122107  -0.051767  -0.054900   0.068091   0.050259
     45       0.016777  -0.026642  -0.041722   0.047941   0.030318   0.126993
     46      -0.000763   0.218427  -0.064943  -0.213365   0.062125  -0.199296
     47       0.003231  -0.153301  -0.062551  -0.035813   0.052405   0.069424
     48      -0.099976  -0.116440   0.038830  -0.089481  -0.090186  -0.160762
     49       0.173215   0.071835  -0.033960   0.047910  -0.105152  -0.112936
     50      -0.070254   0.018943   0.012374   0.138282  -0.069975  -0.057720
     51       0.240851  -0.325570   0.133241   0.015626   0.028137   0.117076
     52      -0.408954  -0.000216   0.083865   0.003668   0.017740   0.095198
     53       0.150968   0.184654   0.148811  -0.101655   0.071342  -0.002364
     54       0.162699  -0.173608   0.090104  -0.451005  -0.342831  -0.157969
     55      -0.181310   0.049366  -0.120502   0.016003  -0.219146  -0.147334
     56       0.134298   0.065310   0.062729   0.332402   0.143978  -0.030947
     57       0.135775  -0.252190   0.095183   0.556385   0.652481  -0.680835
     58      -0.322091   0.060416   0.177748   0.101371   0.395285  -0.077027
     59       0.142394   0.131507   0.121017  -0.340411  -0.320396   0.362624
                 12         13         14         15         16         17    
      0       0.036472  -0.020211  -0.025592  -0.021187  -0.018892   0.022587
      1      -0.100905   0.028038   0.156991  -0.005334   0.205014  -0.013505
      2      -0.020030   0.129965  -0.079175   0.005455  -0.018151  -0.005342
      3       0.032397  -0.060302  -0.006190  -0.022694   0.018869   0.030021
      4       0.013896  -0.006784   0.051637  -0.009704  -0.199640  -0.017831
      5      -0.008718  -0.020333  -0.019593   0.005699   0.017992   0.002432
      6       0.010389   0.037448  -0.022725  -0.026424   0.001088   0.031211
      7       0.110071  -0.021474  -0.148693   0.000420  -0.004210   0.030225
      8      -0.005115  -0.111357   0.035810   0.007308   0.000408  -0.007889
      9       0.000304   0.148997  -0.068509  -0.017529  -0.018241   0.011307
     10      -0.003194   0.014942   0.024988   0.001944   0.207703  -0.020819
     11      -0.001024  -0.078965   0.012108   0.009540  -0.019071  -0.012136
     12       0.005660   0.170949  -0.082848  -0.014741   0.019353   0.005401
     13      -0.112287   0.050679   0.146545  -0.004485  -0.206809  -0.021210
     14      -0.013494   0.073084  -0.041934   0.011294   0.019755  -0.024078
     15       0.013470   0.077257  -0.035380  -0.005217   0.000320  -0.014397
     16      -0.094300   0.042172   0.035931  -0.001018  -0.008926   0.032314
     17      -0.026070   0.164197  -0.067664   0.005614  -0.000251  -0.015183
     18       0.004328   0.033340   0.023453  -0.001141  -0.002066  -0.018733
     19       0.020381   0.020521  -0.128369   0.017924   0.005302  -0.050765
     20      -0.026924   0.005907  -0.029980   0.013640   0.000015   0.011863
     21      -0.015274  -0.311718  -0.072783   0.043289  -0.000523  -0.054452
     22       0.099481  -0.014959   0.184766  -0.033869   0.009137   0.069620
     23      -0.019532  -0.084138  -0.043846   0.021515  -0.001489   0.026167
     24       0.055624  -0.096388  -0.017020  -0.028149  -0.043531   0.044061
     25      -0.150406   0.037830   0.258468   0.000425   0.476345  -0.043222
     26      -0.029982   0.199484  -0.103064   0.011579  -0.040064  -0.021506
     27       0.043803  -0.172660   0.035505  -0.019114   0.040388   0.028335
     28       0.047347  -0.025996   0.078977  -0.010487  -0.421965  -0.049313
     29      -0.007299  -0.052899  -0.008312   0.006826   0.037704   0.003419
     30       0.001124   0.017703   0.004265  -0.027522   0.000889   0.029452
     31       0.245896  -0.056662  -0.356565   0.009400  -0.006080   0.063023
     32      -0.002124  -0.202080   0.084955   0.004225  -0.000974  -0.003479
     33      -0.014838   0.227882  -0.087341  -0.013607  -0.040777  -0.001624
     34       0.017822   0.012684   0.022889   0.008420   0.448158  -0.051986
     35       0.009541  -0.152356   0.030088   0.004559  -0.040667   0.006069
     36      -0.004676   0.280203  -0.131682  -0.019473   0.040724   0.015731
     37      -0.162513   0.075939   0.225132  -0.004014  -0.455661  -0.056249
     38      -0.013616   0.107402  -0.062643   0.009391   0.041101  -0.017819
     39       0.117466   0.089889   0.192768   0.088578   0.021853  -0.205750
     40       0.073128  -0.016123  -0.022692   0.035811   0.006972  -0.079530
     41      -0.023390  -0.077306  -0.110001  -0.019451  -0.001849  -0.039542
     42      -0.050861   0.208363  -0.029828  -0.015518  -0.021208   0.062311
     43       0.065235   0.014447  -0.080292   0.027693   0.030720  -0.196055
     44      -0.013689  -0.139477  -0.014245   0.019741  -0.002938   0.059255
     45      -0.034678  -0.332930  -0.053490   0.106304   0.004364   0.208698
     46       0.170442  -0.076686   0.107611  -0.250863  -0.006992  -0.884951
     47      -0.018631  -0.352557  -0.042323   0.039932   0.000938  -0.005031
     48      -0.090231  -0.011091   0.220263   0.129551  -0.003644   0.005243
     49       0.017421  -0.047921  -0.138443   0.056937  -0.010768   0.050811
     50       0.145472  -0.033882   0.182894  -0.135696   0.001873   0.028732
     51       0.077472   0.043456   0.022758  -0.035269   0.002938  -0.026018
     52       0.012351  -0.021028  -0.129919  -0.000438  -0.001899   0.012988
     53      -0.084257   0.023032  -0.011178   0.030232   0.000485  -0.016962
     54      -0.487729  -0.253655  -0.095655  -0.752602   0.010200   0.167982
     55      -0.096500  -0.119047  -0.232096  -0.171377   0.000687  -0.041973
     56       0.425921   0.138591   0.405746   0.465598  -0.014567   0.034237
     57      -0.407838  -0.151581   0.075583  -0.204408   0.001457   0.041734
     58      -0.279930  -0.040932  -0.331234  -0.001180   0.002510  -0.043478
     59       0.219630   0.102573   0.059328   0.092382  -0.000793  -0.017998
                 18         19         20         21         22         23    
      0      -0.098050   0.034133  -0.010441  -0.120544  -0.247910  -0.020007
      1      -0.039540  -0.008504  -0.030034  -0.013742  -0.037701   0.168435
      2       0.041817  -0.071819  -0.028313  -0.266768  -0.015001   0.004455
      3      -0.137278   0.076933  -0.016861  -0.077010  -0.177316   0.010508
      4      -0.092091  -0.084642   0.071858  -0.030250   0.028908  -0.189792
      5      -0.008536   0.007579  -0.016399  -0.019434   0.344582   0.034321
      6      -0.193058   0.051003  -0.024290  -0.177698   0.132911  -0.001783
      7       0.103283   0.132368  -0.086767   0.017712   0.005514   0.164201
      8       0.010198  -0.002574   0.021822   0.113877   0.087540  -0.018261
      9      -0.032595  -0.006306  -0.014525   0.103367   0.279265   0.021408
     10      -0.073761  -0.087550   0.069823   0.010021   0.044334  -0.190814
     11       0.077055  -0.010432   0.015664   0.189906   0.091719   0.010836
     12      -0.003231  -0.029853  -0.005312   0.071709   0.163724  -0.013215
     13      -0.019364  -0.008903  -0.007489   0.014161  -0.020030   0.169498
     14       0.156233  -0.097509   0.003707  -0.054560  -0.261256  -0.019347
     15       0.069386  -0.065025   0.037607   0.164158  -0.123489   0.007994
     16       0.181719   0.190507  -0.145468   0.017990  -0.017682  -0.216589
     17       0.052079  -0.092178  -0.006601  -0.147532  -0.049195   0.027621
     18       0.112390  -0.025235   0.031799   0.246983  -0.137481  -0.006711
     19       0.089939   0.148407   0.114837  -0.066572   0.029412  -0.064149
     20      -0.131063   0.126067   0.022685   0.116165  -0.084611  -0.017025
     21       0.149350  -0.104189  -0.011406  -0.112608   0.065088   0.009877
     22       0.065121  -0.030598   0.027319  -0.028415   0.015377   0.015414
     23      -0.182720   0.084684  -0.004641   0.094094  -0.089584  -0.010155
     24      -0.192297   0.112641  -0.031766  -0.147663  -0.089928  -0.044205
     25      -0.165457  -0.140572   0.078486  -0.038771  -0.034182   0.444392
     26       0.156289  -0.124852  -0.024924  -0.225040  -0.152346  -0.018384
     27      -0.101393   0.120492  -0.000431   0.205257  -0.160051  -0.020770
     28      -0.231329  -0.252306   0.232072  -0.054800   0.051782  -0.072736
     29       0.012914   0.029609  -0.020582   0.066910   0.335075   0.017428
     30      -0.209842   0.048154  -0.019427  -0.195548   0.039952  -0.031923
     31       0.207692   0.233634  -0.128354  -0.008006  -0.034630   0.445507
     32      -0.038583   0.021953   0.026042   0.000376  -0.290490  -0.054278
     33       0.075939  -0.051566  -0.020343   0.139944   0.117715   0.003027
     34      -0.212044  -0.257465   0.212743  -0.038624   0.071548  -0.068230
     35      -0.002445   0.062597  -0.005594   0.151255   0.227933   0.006550
     36      -0.031485  -0.042730  -0.056282  -0.204545   0.147103  -0.020276
     37      -0.141226  -0.134050   0.121281  -0.076025   0.007590   0.447161
     38       0.149910  -0.092334  -0.020271  -0.132931  -0.255019  -0.037565
     39       0.145427   0.220388   0.352478  -0.030022  -0.045672   0.266174
     40       0.034421   0.142322   0.194083  -0.012890  -0.029221   0.137030
     41      -0.083600   0.352294   0.196354  -0.061689  -0.036331  -0.006375
     42       0.169417  -0.153778  -0.107382   0.371217  -0.187786  -0.115546
     43       0.129654   0.425185   0.366163  -0.231440   0.088105   0.057256
     44      -0.204860   0.019094  -0.049945   0.132165  -0.086885  -0.010385
     45       0.274015  -0.124243   0.134632  -0.211513   0.111154   0.044137
     46      -0.368801  -0.027602  -0.533094   0.129876  -0.038795  -0.081860
     47      -0.150879  -0.033777  -0.085207  -0.302528   0.140192   0.031555
     48       0.023641   0.065606  -0.028599  -0.059144   0.029240  -0.030451
     49      -0.107222  -0.185815  -0.050720   0.110525  -0.050430   0.038368
     50       0.049120  -0.005674  -0.011025  -0.032897   0.016746  -0.007882
     51       0.018756   0.017594   0.030562   0.016814  -0.010219   0.023237
     52      -0.019136  -0.008841  -0.021228  -0.024402   0.011981  -0.032979
     53       0.000206   0.023030   0.021271   0.012396  -0.007603   0.013312
     54       0.150849  -0.167257  -0.044589   0.010559   0.032131  -0.056806
     55      -0.020829   0.146930   0.240817   0.020157  -0.074225   0.165178
[...]
   15       -32.178717   -25.880685    0.006098  0.001420
   16       -32.179485   -26.362770    0.005289  0.001302
   17       -32.180186   -26.803098    0.005247  0.001189
   18       -32.180827   -27.205344    0.004597  0.001084
   19       -32.181410   -27.570914    0.004414  0.000988
   20       -32.181936   -27.900760    0.003737  0.000923
   21       -32.182392   -28.186888    0.003754  0.000923
   22       -32.182539   -28.279588    0.003363  0.000912
   23       -32.182725   -28.396149    0.003207  0.000727
   24       -32.182930   -28.524674    0.003072  0.000695
   25       -32.183120   -28.644048    0.002846  0.000651
   26       -32.183301   -28.757527    0.002748  0.000615
   27       -32.183472   -28.864678    0.002606  0.000581
   28       -32.183633   -28.965608    0.002430  0.000547
   29       -32.183785   -29.060911    0.002374  0.000517
   30       -32.183928   -29.150904    0.002214  0.000493
   31       -32.184062   -29.234952    0.002187  0.000480
   32       -32.184183   -29.311175    0.001956  0.000502
   33       -32.184235   -29.343890    0.002007  0.000502
   34       -32.184288   -29.377057    0.001949  0.000413

                      ***********************HURRAY********************
                      ***            THE IRC HAS CONVERGED          ***
                      *************************************************


         *************************************************************
         *                          BACKWARD IRC                     *
         *************************************************************

Iteration    E(Eh)      dE(kcal/mol)  max(|G|)   RMS(G) 
Convergence thresholds                0.002000  0.000500            
    0       -32.138420   -0.594463    0.020203  0.004246
    1       -32.138942   -0.921735    0.009098  0.002224
    2       -32.139125   -1.036605    0.004480  0.001279
    3       -32.139328   -1.163842    0.003996  0.000846
    4       -32.139564   -1.312357    0.003698  0.000827
    5       -32.139808   -1.465273    0.003579  0.000856
    6       -32.140060   -1.623152    0.003423  0.000886
    7       -32.140323   -1.788480    0.003374  0.000928
    8       -32.140598   -1.960840    0.003329  0.000968
    9       -32.140886   -2.141684    0.003315  0.001016
   10       -32.141188   -2.330934    0.003464  0.001064
   11       -32.141505   -2.529917    0.003713  0.001118
   12       -32.141836   -2.738005    0.003974  0.001169
   13       -32.142184   -2.956409    0.004230  0.001226
   14       -32.142548   -3.184346    0.004497  0.001279
   15       -32.142928   -3.423208    0.004763  0.001340
   16       -32.143325   -3.672170    0.005044  0.001396
   17       -32.143740   -3.932852    0.005318  0.001461
   18       -32.144172   -4.203823    0.005588  0.001517
   19       -32.144623   -4.486516    0.005876  0.001582
   20       -32.145090   -4.779605    0.006175  0.001640
   21       -32.145577   -5.085177    0.006461  0.001710
   22       -32.146080   -5.401278    0.006737  0.001767
   23       -32.146605   -5.730144    0.007007  0.001838
   24       -32.147145   -6.069462    0.007290  0.001894
   25       -32.147707   -6.421764    0.007574  0.001966
   26       -32.148285   -6.784482    0.007861  0.002023
   27       -32.148884   -7.160370    0.008140  0.002096
   28       -32.149499   -7.546508    0.008417  0.002151
   29       -32.150135   -7.945465    0.008674  0.002220
   30       -32.150785   -8.353135    0.008906  0.002265
   31       -32.151452   -8.771871    0.009125  0.002324
   32       -32.152131   -9.198257    0.009333  0.002365
   33       -32.152828   -9.635340    0.009550  0.002427
   34       -32.153538   -10.080804    0.009786  0.002473
   35       -32.154266   -10.537889    0.010007  0.002536
   36       -32.155007   -11.002831    0.010208  0.002578
   37       -32.155765   -11.478427    0.010385  0.002635
   38       -32.156534   -11.960777    0.010544  0.002670
   39       -32.157318   -12.452793    0.010690  0.002723
   40       -32.158112   -12.951121    0.010814  0.002757
   41       -32.158920   -13.458522    0.010935  0.002805
   42       -32.159738   -13.971527    0.011045  0.002835
   43       -32.160568   -14.492421    0.011138  0.002876
   44       -32.161406   -15.017948    0.011206  0.002900
   45       -32.162253   -15.549906    0.011295  0.002934
   46       -32.163107   -16.085426    0.011459  0.002951
   47       -32.163968   -16.625794    0.011578  0.002976
   48       -32.164833   -17.168817    0.011703  0.002989
   49       -32.165704   -17.715166    0.011790  0.003005
   50       -32.166577   -18.263328    0.011876  0.003014
   51       -32.167454   -18.813517    0.011924  0.003023
   52       -32.168332   -19.364503    0.011953  0.003026
   53       -32.169211   -19.916143    0.011953  0.003028
   54       -32.170091   -20.468298    0.011939  0.003032
   55       -32.170972   -21.021248    0.011905  0.003037
   56       -32.171856   -21.575532    0.011862  0.003047
   57       -32.172743   -22.132030    0.011810  0.003062
   58       -32.173635   -22.691768    0.011748  0.003083
   59       -32.174536   -23.257348    0.011679  0.003124
   60       -32.175450   -23.830617    0.011590  0.003174
   61       -32.176383   -24.416337    0.011508  0.003254
   62       -32.177341   -25.017512    0.011409  0.003353
   63       -32.178337   -25.642790    0.011329  0.003507
   64       -32.179380   -26.297242    0.011711  0.003689
   65       -32.180491   -26.994189    0.012287  0.003952
   66       -32.181678   -27.739033    0.013151  0.004242
   67       -32.182970   -28.549521    0.014406  0.004636
   68       -32.184368   -29.427271    0.016368  0.005026
   69       -32.185905   -30.391547    0.018595  0.005527
   70       -32.187568   -31.435370    0.020898  0.005970
   71       -32.189385   -32.575557    0.023388  0.006507
   72       -32.191328   -33.794349    0.025842  0.006927
   73       -32.193414   -35.103205    0.028416  0.007412
   74       -32.195603   -36.477068    0.030857  0.007739
   75       -32.197903   -37.920549    0.033331  0.008102
   76       -32.200276   -39.409654    0.035613  0.008317
   77       -32.202722   -40.944440    0.037861  0.008555
   78       -32.205216   -42.509588    0.039909  0.008693
   79       -32.207758   -44.104722    0.041881  0.008858
   80       -32.210341   -45.725182    0.043687  0.008988
   81       -32.212970   -47.374857    0.045441  0.009162
   82       -32.215646   -49.054185    0.047051  0.009322
   83       -32.218375   -50.766481    0.048595  0.009509
   84       -32.221154   -52.510872    0.049977  0.009680
   85       -32.223987   -54.288066    0.051256  0.009858
   86       -32.226866   -56.094817    0.052321  0.010009
   87       -32.229788   -57.928199    0.053205  0.010144
   88       -32.232741   -59.781743    0.053767  0.010234
   89       -32.235716   -61.648552    0.053992  0.010283
   90       -32.238700   -63.520633    0.053697  0.010276
   91       -32.241681   -65.391170    0.053200  0.010248
   92       -32.244650   -67.254696    0.052629  0.010196
   93       -32.247601   -69.106426    0.051969  0.010118
   94       -32.250525   -70.940958    0.051156  0.010004
   95       -32.253407   -72.749666    0.050054  0.009830
   96       -32.256227   -74.519080    0.048524  0.009569
   97       -32.258956   -76.231654    0.046464  0.009203
   98       -32.261562   -77.866619    0.043792  0.008716
   99       -32.264006   -79.400598    0.040435  0.008093

         *************************************************************
         *  MAXIMUM NUMBER OF ITERATIONS REACHED - STOPPING IRC RUN  *
         *************************************************************


---------------------------------------------------------------
                       IRC PATH SUMMARY              
---------------------------------------------------------------
All gradients are in Eh/Bohr.

Step        E(Eh)      dE(kcal/mol)  max(|G|)   RMS(G) 
   1       -32.264006   -79.400598    0.040435  0.008093
   2       -32.261562   -77.866619    0.043792  0.008716
   3       -32.258956   -76.231654    0.046464  0.009203
   4       -32.256227   -74.519080    0.048524  0.009569
   5       -32.253407   -72.749666    0.050054  0.009830
   6       -32.250525   -70.940958    0.051156  0.010004
   7       -32.247601   -69.106426    0.051969  0.010118
   8       -32.244650   -67.254696    0.052629  0.010196
   9       -32.241681   -65.391170    0.053200  0.010248
  10       -32.238700   -63.520633    0.053697  0.010276
  11       -32.235716   -61.648552    0.053992  0.010283
  12       -32.232741   -59.781743    0.053767  0.010234
  13       -32.229788   -57.928199    0.053205  0.010144
  14       -32.226866   -56.094817    0.052321  0.010009
  15       -32.223987   -54.288066    0.051256  0.009858
  16       -32.221154   -52.510872    0.049977  0.009680
  17       -32.218375   -50.766481    0.048595  0.009509
  18       -32.215646   -49.054185    0.047051  0.009322
  19       -32.212970   -47.374857    0.045441  0.009162
  20       -32.210341   -45.725182    0.043687  0.008988
  21       -32.207758   -44.104722    0.041881  0.008858
  22       -32.205216   -42.509588    0.039909  0.008693
  23       -32.202722   -40.944440    0.037861  0.008555
  24       -32.200276   -39.409654    0.035613  0.008317
  25       -32.197903   -37.920549    0.033331  0.008102
  26       -32.195603   -36.477068    0.030857  0.007739
  27       -32.193414   -35.103205    0.028416  0.007412
  28       -32.191328   -33.794349    0.025842  0.006927
  29       -32.189385   -32.575557    0.023388  0.006507
  30       -32.187568   -31.435370    0.020898  0.005970
  31       -32.185905   -30.391547    0.018595  0.005527
  32       -32.184368   -29.427271    0.016368  0.005026
  33       -32.182970   -28.549521    0.014406  0.004636
  34       -32.181678   -27.739033    0.013151  0.004242
  35       -32.180491   -26.994189    0.012287  0.003952
  36       -32.179380   -26.297242    0.011711  0.003689
  37       -32.178337   -25.642790    0.011329  0.003507
  38       -32.177341   -25.017512    0.011409  0.003353
  39       -32.176383   -24.416337    0.011508  0.003254
  40       -32.175450   -23.830617    0.011590  0.003174
  41       -32.174536   -23.257348    0.011679  0.003124
  42       -32.173635   -22.691768    0.011748  0.003083
  43       -32.172743   -22.132030    0.011810  0.003062
  44       -32.171856   -21.575532    0.011862  0.003047
  45       -32.170972   -21.021248    0.011905  0.003037
  46       -32.170091   -20.468298    0.011939  0.003032
  47       -32.169211   -19.916143    0.011953  0.003028
  48       -32.168332   -19.364503    0.011953  0.003026
  49       -32.167454   -18.813517    0.011924  0.003023
  50       -32.166577   -18.263328    0.011876  0.003014
  51       -32.165704   -17.715166    0.011790  0.003005
  52       -32.164833   -17.168817    0.011703  0.002989
  53       -32.163968   -16.625794    0.011578  0.002976
  54       -32.163107   -16.085426    0.011459  0.002951
  55       -32.162253   -15.549906    0.011295  0.002934
  56       -32.161406   -15.017948    0.011206  0.002900
  57       -32.160568   -14.492421    0.011138  0.002876
  58       -32.159738   -13.971527    0.011045  0.002835
  59       -32.158920   -13.458522    0.010935  0.002805
  60       -32.158112   -12.951121    0.010814  0.002757
  61       -32.157318   -12.452793    0.010690  0.002723
  62       -32.156534   -11.960777    0.010544  0.002670
  63       -32.155765   -11.478427    0.010385  0.002635
  64       -32.155007   -11.002831    0.010208  0.002578
  65       -32.154266   -10.537889    0.010007  0.002536
  66       -32.153538   -10.080804    0.009786  0.002473
  67       -32.152828   -9.635340    0.009550  0.002427
  68       -32.152131   -9.198257    0.009333  0.002365
  69       -32.151452   -8.771871    0.009125  0.002324
  70       -32.150785   -8.353135    0.008906  0.002265
  71       -32.150135   -7.945465    0.008674  0.002220
  72       -32.149499   -7.546508    0.008417  0.002151
  73       -32.148884   -7.160370    0.008140  0.002096
  74       -32.148285   -6.784482    0.007861  0.002023
  75       -32.147707   -6.421764    0.007574  0.001966
  76       -32.147145   -6.069462    0.007290  0.001894
  77       -32.146605   -5.730144    0.007007  0.001838
  78       -32.146080   -5.401278    0.006737  0.001767
  79       -32.145577   -5.085177    0.006461  0.001710
  80       -32.145090   -4.779605    0.006175  0.001640
  81       -32.144623   -4.486516    0.005876  0.001582
  82       -32.144172   -4.203823    0.005588  0.001517
  83       -32.143740   -3.932852    0.005318  0.001461
  84       -32.143325   -3.672170    0.005044  0.001396
  85       -32.142928   -3.423208    0.004763  0.001340
  86       -32.142548   -3.184346    0.004497  0.001279
  87       -32.142184   -2.956409    0.004230  0.001226
  88       -32.141836   -2.738005    0.003974  0.001169
  89       -32.141505   -2.529917    0.003713  0.001118
  90       -32.141188   -2.330934    0.003464  0.001064
  91       -32.140886   -2.141684    0.003315  0.001016
  92       -32.140598   -1.960840    0.003329  0.000968
  93       -32.140323   -1.788480    0.003374  0.000928
  94       -32.140060   -1.623152    0.003423  0.000886
  95       -32.139808   -1.465273    0.003579  0.000856
  96       -32.139564   -1.312357    0.003698  0.000827
  97       -32.139328   -1.163842    0.003996  0.000846
  98       -32.139125   -1.036605    0.004480  0.001279
  99       -32.138942   -0.921735    0.009098  0.002224
 100       -32.138420   -0.594463    0.020203  0.004246
 101       -32.137473    0.000000    0.000040  0.000008 <= TS
 102       -32.139110   -1.027504    0.021061  0.004253
 103       -32.140547   -1.929107    0.016812  0.003455
 104       -32.142839   -3.367233    0.022431  0.004563
 105       -32.145906   -5.291885    0.030517  0.005933
 106       -32.149597   -7.608269    0.036259  0.006929
 107       -32.153905   -10.311352    0.042296  0.007885
 108       -32.158507   -13.199096    0.043755  0.008157
 109       -32.163168   -16.123725    0.041572  0.007930
 110       -32.167528   -18.859525    0.038001  0.006924
 111       -32.170989   -21.031844    0.027745  0.004909
 112       -32.173130   -22.375146    0.012249  0.003020
 113       -32.174679   -23.346956    0.009364  0.002451
 114       -32.175914   -24.121827    0.007985  0.002079
 115       -32.176948   -24.770832    0.006890  0.001762
 116       -32.177879   -25.354907    0.005849  0.001575
 117       -32.178717   -25.880685    0.006098  0.001420
 118       -32.179485   -26.362770    0.005289  0.001302
 119       -32.180186   -26.803098    0.005247  0.001189
 120       -32.180827   -27.205344    0.004597  0.001084
 121       -32.181410   -27.570914    0.004414  0.000988
 122       -32.181936   -27.900760    0.003737  0.000923
 123       -32.182392   -28.186888    0.003754  0.000923
 124       -32.182539   -28.279588    0.003363  0.000912
 125       -32.182725   -28.396149    0.003207  0.000727
 126       -32.182930   -28.524674    0.003072  0.000695
 127       -32.183120   -28.644048    0.002846  0.000651
 128       -32.183301   -28.757527    0.002748  0.000615
 129       -32.183472   -28.864678    0.002606  0.000581
 130       -32.183633   -28.965608    0.002430  0.000547
 131       -32.183785   -29.060911    0.002374  0.000517
 132       -32.183928   -29.150904    0.002214  0.000493
 133       -32.184062   -29.234952    0.002187  0.000480
 134       -32.184183   -29.311175    0.001956  0.000502
 135       -32.184235   -29.343890    0.002007  0.000502
 136       -32.184288   -29.377057    0.001949  0.000413
Converting BnOH_H2O2_ts_opt.gbw to JSON (see BnOH_H2O2_ts_opt.2jsonout) ... FAILED

--------------------------------
SUGGESTED CITATIONS FOR THIS RUN
--------------------------------

Below you find a list of papers that are relevant to this ORCA run
We neither can nor want to force you to cite these papers, but we appreciate if you do
You receive ORCA, which is the product of decades of hard work by many enthusiastic individuals, for free
The only thing we kindly ask in return is that you cite our papers,
We deeply appreciate it, if you show your appreciation for ORCA by not just citing the generic ORCA reference.

Please note that relegating all ORCA citations to the supporting information does *not* help us.
SI sections are not indexed - citations you put there will not count into any citation statistics
But we need these citations in order to attract the funding resources that allow us to do what we are doing

Therefore, if you are a happy ORCA user, please consider citing a few of the papers listed below in the main body of your paper

In addition to the list printed below, the program has created the file BnOH_H2O2_ts_opt.bibtex that contains the list in bibtex format
You can import this file easily into all common literature databanks and citation aid programs


List of essential papers. We consider these as the minimum necessary citations

  1. Bannwarth, C.; Ehlert, S.; Grimme, S.
     GFN2-xTB—An Accurate and Broadly Parametrized Self-Consistent Tight-Binding Quantum Chemical Method with Multipole Electrostatics and Density-Dependent Dispersion Contributions
     J. Chem. Theory Comput. 2019 15(3), 1652-1671
     doi.org/10.1021/acs.jctc.8b01176
  2. Neese, F.
     Software update: the ORCA program system, version 6.0
     WIRES Comput. Molec. Sci. 2025 15(1), e70019
     doi.org/10.1002/wcms.7019

List of papers to cite with high priority. The work reported in these papers was absolutely
necessary for this run to complete.
Our perspective: the developers of density functionals and basis sets usually get cited in chemistry papers
Good! But without the algorithms to do something with them, the functionals or basis sets would not do anything.
Hence, in our opinion, the algorithm design and method developments papers are equally worthy of getting cited

  1. Bykov, D.; Petrenko, T.; Izsak, R.; Kossmann, S.; Becker, U.; Valeev, E.; Neese, F.
     Efficient implementation of the analytic second derivatives of Hartree-Fock and hybrid DFT energies: a detailed analysis of different approximations
     Molec. Phys. 2015 113 , 1961-1977
     doi.org/10.1080/00268976.2015.1025114
  2. Bannwarth, C.; Caldeweyher, E.; Ehlert, S.; Hansen, A.; Pracht, P.; Seibert, J.; Spicher, S.; Grimme, S.
     Extended tight-binding quantum chemistry methods
     WIRES Comput. Molec. Sci. 2020 11(2), e1493
     doi.org/10.1002/wcms.1493

List of suggested additional citations. These are papers that are important in the 'surrounding' of 
of this run, or papers that preceded the highly important papers. If you like your results we are grateful for a citation.

  1. Neese, F.
     The ORCA program system
     WIRES Comput. Molec. Sci. 2012 2(1), 73-78
     doi.org/10.1002/wcms.81
  2. Neese, F.
     Software update: the ORCA program system, version 4.0
     WIRES Comput. Molec. Sci. 2018 8(1), 1-6
     doi.org/10.1002/wcms.1327
  3. Neese, F.; Wennmohs, F.; Becker, U.; Riplinger, C.
     The ORCA quantum chemistry program package
     J. Chem. Phys. 2020 152(22), 224108
     doi.org/10.1063/5.0004608
  4. Neese, F.
     Software update: The ORCA program system—Version 5.0
     WIRES Comput. Molec. Sci. 2022 12(1), e1606
     doi.org/10.1002/wcms.1606

List of optional additional citations

  1. Neese, F.
     Approximate second-order SCF convergence for spin unrestricted wavefunctions
     Chem. Phys. Lett. 2000 325(1-3), 93-98
     doi.org/10.1016/s0009-2614(00)00662-x

Timings for individual modules:

Sum of individual times          ...       13.182 sec (=   0.220 min)
Geometry relaxation              ...        0.055 sec (=   0.001 min)   0.4 %
XTB module                       ...       13.127 sec (=   0.219 min)  99.6 %
                             ****ORCA TERMINATED NORMALLY****
TOTAL RUN TIME: 0 days 0 hours 0 minutes 24 seconds 470 msec
