20
Coordinates from ORCA-job BnOH_H2O2_ts_scan Relaxed Surface Scan Step 1 E -32.186394255310
  C      -0.105516      0.373389      0.923116
  C      -1.435164      0.293630      1.296192
  C      -2.385773     -0.154974      0.393792
  C      -1.999126     -0.529790     -0.881443
  C      -0.667871     -0.456152     -1.252100
  C       0.289109     -0.000809     -0.355233
  C       1.743418      0.066007     -0.751687
  O       1.957756      0.238694     -2.137331
  H       0.634445      0.725436      1.627037
  H      -1.731806      0.585610      2.292601
  H      -3.423834     -0.212655      0.684911
  H      -2.734630     -0.883265     -1.588653
  H      -0.357256     -0.754085     -2.242950
  H       2.228352     -0.885423     -0.493828
  H       2.245141      0.862366     -0.185565
  H       1.600777      1.096718     -2.405000
  O       3.089235     -2.552862      0.197929
  O       2.869586     -3.958305      0.213400
  H       3.863372     -2.451735      0.782153
  H       2.530367     -4.141760     -0.680732
>
20
Coordinates from ORCA-job BnOH_H2O2_ts_scan Relaxed Surface Scan Step 2 E -32.186364671480
  C      -0.176340      0.364446      0.959853
  C      -1.525805      0.262938      1.249672
  C      -2.411406     -0.194478      0.288076
  C      -1.941207     -0.554755     -0.963726
  C      -0.591261     -0.459669     -1.250721
  C       0.302096      0.002669     -0.292670
  C       1.774401      0.088333     -0.609248
  O       2.049644      0.455434     -1.946714
  H       0.512559      0.723823      1.710582
  H      -1.887790      0.545464      2.226999
  H      -3.464465     -0.269747      0.513880
  H      -2.626650     -0.913878     -1.716802
  H      -0.213881     -0.742783     -2.222394
  H       2.229262     -0.903878     -0.481669
  H       2.267773      0.780085      0.086453
  H       1.702603      1.343656     -2.106455
  O       3.026143     -2.670715     -0.316399
  O       3.148658     -3.900266      0.396264
  H       3.709302     -2.763216     -1.004894
  H       2.326947     -3.933428      0.916521
>
20
Coordinates from ORCA-job BnOH_H2O2_ts_scan Relaxed Surface Scan Step 3 E -32.185791242210
  C      -0.178944      0.361776      0.961706
  C      -1.530199      0.271982      1.246895
  C      -2.415677     -0.182844      0.283925
  C      -1.943507     -0.552621     -0.964361
  C      -0.591774     -0.469354     -1.246621
  C       0.301487     -0.009273     -0.287400
  C       1.775251      0.065517     -0.599347
  O       2.056906      0.430796     -1.936128
  H       0.509889      0.719520      1.713276
  H      -1.893730      0.561930      2.221488
  H      -3.470191     -0.248522      0.505917
  H      -2.628876     -0.909787     -1.718451
  H      -0.213097     -0.759493     -2.215717
  H       2.222848     -0.930664     -0.469664
  H       2.271342      0.754018      0.097658
  H       1.714850      1.320617     -2.097360
  O       3.014973     -2.640817     -0.321320
  O       3.171032     -3.874027      0.380810
  H       3.683540     -2.719937     -1.025996
  H       2.354460     -3.928781      0.907300
>
20
Coordinates from ORCA-job BnOH_H2O2_ts_scan Relaxed Surface Scan Step 4 E -32.185049750780
  C      -0.179182      0.362254      0.962638
  C      -1.531712      0.280586      1.244177
  C      -2.416417     -0.175677      0.281185
  C      -1.942188     -0.555166     -0.963406
  C      -0.589241     -0.479908     -1.242007
  C       0.303293     -0.018225     -0.282840
  C       1.777970      0.048796     -0.591195
  O       2.064686      0.408142     -1.928667
  H       0.509025      0.721247      1.714177
  H      -1.896840      0.578135      2.215884
  H      -3.471930     -0.234890      0.500258
  H      -2.626976     -0.913504     -1.717479
  H      -0.209101     -0.777340     -2.208305
  H       2.220698     -0.950042     -0.457013
  H       2.275545      0.737448      0.104553
  H       1.725222      1.298051     -2.094699
  O       2.991232     -2.610258     -0.315302
  O       3.180813     -3.859013      0.353896
  H       3.652871     -2.658997     -1.029116
  H       2.372814     -3.941603      0.889870
>
20
Coordinates from ORCA-job BnOH_H2O2_ts_scan Relaxed Surface Scan Step 5 E -32.184109222130
  C      -0.176630      0.362396      0.963462
  C      -1.529855      0.285277      1.242726
  C      -2.413686     -0.174249      0.280453
  C      -1.937757     -0.561669     -0.961030
  C      -0.584105     -0.490872     -1.237326
  C       0.307593     -0.025772     -0.279022
  C       1.782714      0.036956     -0.584606
  O       2.073179      0.384234     -1.924569
  H       0.510877      0.723941      1.714418
  H      -1.896286      0.588961      2.212050
  H      -3.469781     -0.229826      0.497685
  H      -2.621833     -0.922640     -1.714506
  H      -0.202789     -0.794517     -2.201221
  H       2.224846     -0.962212     -0.441196
  H       2.279381      0.731170      0.106293
  H       1.734389      1.272596     -2.099873
  O       2.964364     -2.576780     -0.305421
  O       3.162148     -3.852973      0.312189
  H       3.632808     -2.588071     -1.014805
  H       2.371006     -3.945915      0.870909
>
20
Coordinates from ORCA-job BnOH_H2O2_ts_scan Relaxed Surface Scan Step 6 E -32.182916072410
  C      -0.176133      0.361134      0.964546
  C      -1.530311      0.290591      1.240815
  C      -2.413693     -0.169183      0.278244
  C      -1.936335     -0.563319     -0.960575
  C      -0.581769     -0.499033     -1.233875
  C       0.309592     -0.033763     -0.275270
  C       1.785515      0.020793     -0.577092
  O       2.081808      0.360109     -1.917968
  H       0.511011      0.722773      1.715781
  H      -1.897852      0.599511      2.208071
  H      -3.470512     -0.219791      0.493192
  H      -2.620062     -0.924567     -1.714250
  H      -0.199479     -0.808056     -2.195667
  H       2.222075     -0.981722     -0.427883
  H       2.283969      0.715515      0.111937
  H       1.745943      1.248282     -2.099627
  O       2.944870     -2.544104     -0.298667
  O       3.162906     -3.836632      0.283650
  H       3.603239     -2.532880     -1.017520
  H       2.385800     -3.945623      0.858766
>
20
Coordinates from ORCA-job BnOH_H2O2_ts_scan Relaxed Surface Scan Step 7 E -32.181423689990
  C      -0.177836      0.355715      0.966387
  C      -1.533414      0.293115      1.237607
  C      -2.415931     -0.161216      0.271669
  C      -1.936324     -0.557499     -0.965603
  C      -0.580434     -0.501177     -1.233831
  C       0.310237     -0.041697     -0.271734
  C       1.787527      0.001206     -0.567163
  O       2.093787      0.339092     -1.906318
  H       0.508579      0.712921      1.720401
  H      -1.902717      0.603661      2.203679
  H      -3.473778     -0.206122      0.482827
  H      -2.619368     -0.914631     -1.721866
  H      -0.196587     -0.812412     -2.194275
  H       2.213056     -1.007969     -0.418243
  H       2.289845      0.689857      0.125028
  H       1.763633      1.228863     -2.090518
  O       2.911589     -2.522164     -0.302306
  O       3.164350     -3.830380      0.238397
  H       3.533303     -2.492790     -1.052874
  H       2.471064     -3.916338      0.915345
>
20
Coordinates from ORCA-job BnOH_H2O2_ts_scan Relaxed Surface Scan Step 8 E -32.179558985410
  C      -0.180088      0.347931      0.969633
  C      -1.536808      0.296414      1.236895
  C      -2.420557     -0.148370      0.267549
  C      -1.940881     -0.546338     -0.969075
  C      -0.583786     -0.500931     -1.233522
  C       0.308123     -0.050743     -0.268192
  C       1.786382     -0.019645     -0.558013
  O       2.101449      0.297268     -1.900331
  H       0.507345      0.697683      1.726181
  H      -1.906195      0.608114      2.202572
  H      -3.479341     -0.184552      0.475690
  H      -2.624767     -0.896281     -1.727949
  H      -0.200383     -0.814001     -2.193525
  H       2.206369     -1.031452     -0.392760
  H       2.289750      0.675495      0.126858
  H       1.776256      1.185563     -2.099755
  O       2.898771     -2.488961     -0.290664
  O       3.195799     -3.805570      0.219063
  H       3.496519     -2.438082     -1.059207
  H       2.516623     -3.923505      0.905161
>
20
Coordinates from ORCA-job BnOH_H2O2_ts_scan Relaxed Surface Scan Step 9 E -32.177228744580
  C      -0.173373      0.328705      0.971348
  C      -1.529893      0.281227      1.239795
  C      -2.417210     -0.148640      0.266890
  C      -1.940985     -0.535794     -0.974455
  C      -0.584026     -0.494378     -1.240185
  C       0.311558     -0.058945     -0.271447
  C       1.789329     -0.032309     -0.561091
  O       2.106713      0.274236     -1.905237
  H       0.516833      0.666883      1.730624
  H      -1.896503      0.584453      2.209237
  H      -3.475914     -0.181643      0.475967
  H      -2.627555     -0.874191     -1.736160
  H      -0.203795     -0.799479     -2.203997
  H       2.208556     -1.046847     -0.388077
  H       2.294354      0.665925      0.119445
  H       1.783311      1.161369     -2.112427
  O       2.874083     -2.455834     -0.278522
  O       3.190879     -3.775176      0.227154
  H       3.459619     -2.402938     -1.057226
  H       2.524601     -3.896588      0.924973
>
20
Coordinates from ORCA-job BnOH_H2O2_ts_scan Relaxed Surface Scan Step 10 E -32.174343764580
  C      -0.169868      0.319466      0.972885
  C      -1.526692      0.276294      1.240111
  C      -2.414937     -0.147428      0.265297
  C      -1.939197     -0.532698     -0.976798
  C      -0.581924     -0.495492     -1.241437
  C       0.314731     -0.066193     -0.270819
  C       1.792244     -0.044330     -0.558613
  O       2.113120      0.254414     -1.903650
  H       0.521047      0.652833      1.733626
  H      -1.892976      0.578094      2.210132
  H      -3.473914     -0.177076      0.473516
  H      -2.626421     -0.866352     -1.740018
  H      -0.202516     -0.799166     -2.205996
  H       2.209585     -1.063445     -0.380130
  H       2.299099      0.654524      0.119843
  H       1.792856      1.141192     -2.116883
  O       2.849742     -2.423898     -0.272773
  O       3.189239     -3.750282      0.221229
  H       3.421570     -2.368805     -1.061833
  H       2.535793     -3.881615      0.928921
>
20
Coordinates from ORCA-job BnOH_H2O2_ts_scan Relaxed Surface Scan Step 11 E -32.170822549400
  C      -0.166465      0.306784      0.974940
  C      -1.523509      0.268339      1.241217
  C      -2.413352     -0.145132      0.263372
  C      -1.938815     -0.525048     -0.980804
  C      -0.581291     -0.492576     -1.244660
  C       0.317063     -0.073218     -0.271127
  C       1.794100     -0.056385     -0.557112
  O       2.119104      0.231305     -1.903382
  H       0.525690      0.632192      1.737973
  H      -1.888890      0.565844      2.212911
  H      -3.472560     -0.171034      0.470925
  H      -2.627236     -0.850840     -1.746353
  H      -0.203223     -0.792499     -2.210896
  H       2.209780     -1.080671     -0.371000
  H       2.303109      0.643973      0.118086
  H       1.801994      1.117070     -2.125138
  O       2.825707     -2.392027     -0.265554
  O       3.190424     -3.726350      0.217477
  H       3.380990     -2.337038     -1.066853
  H       2.557962     -3.862652      0.942586
>
20
Coordinates from ORCA-job BnOH_H2O2_ts_scan Relaxed Surface Scan Step 12 E -32.166614927920
  C      -0.166101      0.259311      0.980719
  C      -1.523293      0.234180      1.246030
  C      -2.419998     -0.129866      0.254614
  C      -1.951495     -0.473978     -1.001978
  C      -0.593518     -0.454632     -1.265417
  C       0.311730     -0.084339     -0.278576
  C       1.788591     -0.079937     -0.559394
  O       2.124789      0.182143     -1.907395
  H       0.531475      0.546143      1.754176
  H      -1.883912      0.503385      2.227715
  H      -3.479513     -0.145278      0.461598
  H      -2.644963     -0.761106     -1.778392
  H      -0.221890     -0.727713     -2.242010
  H       2.200228     -1.109736     -0.353367
  H       2.300276      0.625087      0.108806
  H       1.822612      1.068836     -2.145441
  O       2.799541     -2.368821     -0.255198
  O       3.227186     -3.695216      0.237998
  H       3.255086     -2.358331     -1.119041
  H       2.733753     -3.770098      1.071163
>
20
Coordinates from ORCA-job BnOH_H2O2_ts_scan Relaxed Surface Scan Step 13 E -32.161619304860
  C      -0.161353      0.255372      0.980778
  C      -1.518388      0.229809      1.246389
  C      -2.415306     -0.134314      0.255142
  C      -1.947194     -0.478030     -1.001767
  C      -0.589441     -0.458297     -1.265782
  C       0.316183     -0.087598     -0.279048
  C       1.791424     -0.083274     -0.559788
  O       2.131220      0.173059     -1.907191
  H       0.536406      0.542049      1.754090
  H      -1.878811      0.498567      2.228260
  H      -3.474726     -0.150245      0.462541
  H      -2.640962     -0.765304     -1.777849
  H      -0.218122     -0.731168     -2.242519
  H       2.203224     -1.122303     -0.351549
  H       2.306805      0.617641      0.109584
  H       1.835177      1.060526     -2.149965
  O       2.772022     -2.334877     -0.250514
  O       3.211089     -3.681142      0.232574
  H       3.227545     -2.328714     -1.114690
  H       2.723790     -3.761720      1.067913
>
20
Coordinates from ORCA-job BnOH_H2O2_ts_scan Relaxed Surface Scan Step 14 E -32.155895412810
  C      -0.159034      0.253637      0.981538
  C      -1.515998      0.227798      1.246655
  C      -2.412632     -0.136581      0.255119
  C      -1.944288     -0.480382     -1.001755
  C      -0.586643     -0.460521     -1.265699
  C       0.318854     -0.088851     -0.278715
  C       1.791998     -0.084659     -0.557535
  O       2.139251      0.156892     -1.904318
  H       0.538511      0.540041      1.755072
  H      -1.876750      0.496111      2.228497
  H      -3.472040     -0.152940      0.462407
  H      -2.637935     -0.768105     -1.777735
  H      -0.215291     -0.734138     -2.242172
  H       2.203124     -1.135267     -0.341466
  H       2.312088      0.612567      0.111399
  H       1.851505      1.043950     -2.158523
  O       2.747542     -2.299132     -0.246298
  O       3.205612     -3.672110      0.223118
  H       3.197766     -2.297226     -1.113136
  H       2.724943     -3.761047      1.060155
>
20
Coordinates from ORCA-job BnOH_H2O2_ts_scan Relaxed Surface Scan Step 15 E -32.149632914910
  C      -0.156187      0.251999      0.981601
  C      -1.512731      0.223849      1.247543
  C      -2.409644     -0.140779      0.256153
  C      -1.942133     -0.482519     -1.001711
  C      -0.584995     -0.460367     -1.267212
  C       0.320883     -0.087621     -0.280312
  C       1.790720     -0.080598     -0.558976
  O       2.146006      0.143148     -1.903662
  H       0.541738      0.537942      1.754847
  H      -1.873159      0.489990      2.230032
  H      -3.468752     -0.159364      0.464533
  H      -2.636209     -0.770681     -1.777064
  H      -0.214156     -0.733091     -2.244064
  H       2.201739     -1.145983     -0.332558
  H       2.317995      0.609426      0.111061
  H       1.872160      1.030975     -2.170832
  O       2.720718     -2.261384     -0.240268
  O       3.200081     -3.669954      0.218076
  H       3.172398     -2.269035     -1.105931
  H       2.724112     -3.765918      1.055353
>
20
Coordinates from ORCA-job BnOH_H2O2_ts_scan Relaxed Surface Scan Step 16 E -32.143230990960
  C      -0.150642      0.244504      0.980596
  C      -1.505929      0.210332      1.250590
  C      -2.405204     -0.149497      0.259257
  C      -1.941579     -0.480425     -1.003136
  C      -0.585851     -0.452296     -1.273853
  C       0.322550     -0.083076     -0.286868
  C       1.786723     -0.067900     -0.568641
  O       2.150870      0.132199     -1.909341
  H       0.549374      0.525639      1.753522
  H      -1.863873      0.467095      2.236365
  H      -3.463352     -0.173436      0.471497
  H      -2.637825     -0.765133     -1.777671
  H      -0.217675     -0.717634     -2.253622
  H       2.199241     -1.152529     -0.328138
  H       2.324979      0.609687      0.104245
  H       1.901301      1.022954     -2.191457
  O       2.690637     -2.219892     -0.232318
  O       3.190430     -3.674144      0.230415
  H       3.147391     -2.252213     -1.093554
  H       2.719019     -3.764201      1.068721
>
20
Coordinates from ORCA-job BnOH_H2O2_ts_scan Relaxed Surface Scan Step 17 E -32.140705390790
  C      -0.161904      0.019922      0.946285
  C      -1.503641     -0.058725      1.262823
  C      -2.449797     -0.203092      0.258709
  C      -2.047341     -0.269957     -1.065295
  C      -0.705187     -0.197827     -1.388330
  C       0.249760     -0.043991     -0.385308
  C       1.688458      0.036221     -0.709044
  O       1.968715      0.224487     -2.032666
  H       0.575967      0.125775      1.727007
  H      -1.816165     -0.008190      2.294659
  H      -3.497616     -0.264208      0.509809
  H      -2.781677     -0.382041     -1.848188
  H      -0.382155     -0.245279     -2.416373
  H       2.148015     -1.096200     -0.380572
  H       2.245653      0.677161     -0.022869
  H       2.891929      0.483955     -2.168360
  O       2.558492     -2.114960     -0.140812
  O       3.347451     -3.564800      0.514159
  H       2.209795     -2.663920     -0.857945
  H       3.671832     -3.194298      1.338921
>
20
Coordinates from ORCA-job BnOH_H2O2_ts_scan Relaxed Surface Scan Step 18 E -32.138123089540
  C      -0.172302      0.069279      0.941590
  C      -1.511472     -0.027245      1.259002
  C      -2.455545     -0.205192      0.256839
  C      -2.054660     -0.287661     -1.068092
  C      -0.716255     -0.197223     -1.395170
  C       0.239501     -0.007544     -0.393064
  C       1.658341      0.101978     -0.719098
  O       1.971603      0.260118     -2.016615
  H       0.564862      0.198481      1.718978
  H      -1.825271      0.033814      2.289557
  H      -3.501537     -0.281703      0.510268
  H      -2.789028     -0.426599     -1.846264
  H      -0.393315     -0.257389     -2.422444
  H       2.113274     -1.143089     -0.376077
  H       2.259798      0.649224      0.005585
  H       2.897031      0.520343     -2.150793
  O       2.546317     -2.095453     -0.154150
  O       3.423020     -3.658211      0.503227
  H       2.232474     -2.692366     -0.844107
  H       3.723746     -3.293528      1.337435
>
20
Coordinates from ORCA-job BnOH_H2O2_ts_scan Relaxed Surface Scan Step 19 E -32.279937625600
  C       0.117031     -0.344912      0.796214
  C      -1.138899     -0.163528      1.346295
  C      -2.227600      0.090458      0.527225
  C      -2.058037      0.158740     -0.844755
  C      -0.803800     -0.028618     -1.400370
  C       0.287524     -0.277138     -0.581291
  C       1.667166     -0.515956     -1.158441
  O       1.712377     -0.087774     -2.485224
  H       0.969542     -0.544573      1.428747
  H      -1.267199     -0.216608      2.416689
  H      -3.206033      0.236592      0.959261
  H      -2.903116      0.357221     -1.486338
  H      -0.659840      0.029313     -2.468087
  H       1.367016     -2.445227     -1.543509
  H       2.410678      0.019317     -0.545915
  H       2.612263     -0.179365     -2.830067
  O       2.044103     -1.869940     -1.053315
  O       3.103800     -1.988392      1.651403
  H       2.866260     -2.104851      0.720079
  H       3.317346     -2.864724      1.988006
