20
Coordinates from ORCA-job BnOH_H2O2_ts_scan Relaxed Surface Scan Step 1 E -32.186816998640
  C      -0.140247      0.065396      1.382522
  C      -1.513483     -0.019897      1.526515
  C      -2.324200     -0.107474      0.407196
  C      -1.755082     -0.111477     -0.855490
  C      -0.380820     -0.033322     -0.998772
  C       0.437752      0.057329      0.119439
  C       1.935425      0.162608     -0.027330
  O       2.654680     -0.509641      0.987480
  H       0.500516      0.137817      2.249130
  H      -1.951687     -0.014874      2.513364
  H      -3.396121     -0.172915      0.517979
  H      -2.383287     -0.180771     -1.731032
  H       0.061483     -0.039881     -1.984517
  H       2.234086      1.216121      0.055250
  H       2.242113     -0.200527     -1.017389
  H       2.450476     -1.453698      0.943319
  O       2.785597      3.132719      0.205220
  O       2.599280      4.480496     -0.220952
  H       3.522479      3.217235      0.836609
  H       1.769631      4.435381     -0.727448
>
20
Coordinates from ORCA-job BnOH_H2O2_ts_scan Relaxed Surface Scan Step 2 E -32.186400813410
  C      -0.134626      0.065464      1.383439
  C      -1.508098     -0.017620      1.526334
  C      -2.318470     -0.098581      0.406262
  C      -1.748638     -0.098672     -0.856080
  C      -0.374124     -0.022712     -0.998310
  C       0.444096      0.061713      0.120642
  C       1.941655      0.169471     -0.025649
  O       2.662917     -0.493588      0.993645
  H       0.505606      0.133617      2.250772
  H      -1.946781     -0.015522      2.512993
  H      -3.390621     -0.161674      0.516270
  H      -2.376429     -0.162713     -1.732326
  H       0.068683     -0.025671     -1.983832
  H       2.234893      1.225768      0.050654
  H       2.249989     -0.198768     -1.013278
  H       2.462833     -1.438775      0.955013
  O       2.749635      3.097156      0.195891
  O       2.586623      4.450689     -0.224974
  H       3.488165      3.166836      0.827056
  H       1.751282      4.424210     -0.723427
>
20
Coordinates from ORCA-job BnOH_H2O2_ts_scan Relaxed Surface Scan Step 3 E -32.185845152650
  C      -0.131490      0.073344      1.382396
  C      -1.504638     -0.013618      1.526047
  C      -2.315340     -0.098094      0.406481
  C      -1.746090     -0.097761     -0.856127
  C      -0.371893     -0.017911     -0.999091
  C       0.446714      0.069956      0.119344
  C       1.943667      0.182468     -0.028085
  O       2.667984     -0.472469      0.994419
  H       0.508853      0.144373      2.249407
  H      -1.942860     -0.011759      2.512922
  H      -3.387257     -0.164168      0.517099
  H      -2.374096     -0.164456     -1.732034
  H       0.070424     -0.020444     -1.984833
  H       2.232911      1.241204      0.042550
  H       2.252978     -0.189879     -1.013861
  H       2.471146     -1.418518      0.961429
  O       2.726034      3.062523      0.189798
  O       2.586365      4.424770     -0.215320
  H       3.463322      3.113182      0.824395
  H       1.751857      4.417883     -0.715839
>
20
Coordinates from ORCA-job BnOH_H2O2_ts_scan Relaxed Surface Scan Step 4 E -32.185125282450
  C      -0.129488      0.075121      1.382600
  C      -1.502433     -0.016117      1.525901
  C      -2.312891     -0.098848      0.406098
  C      -1.743556     -0.092222     -0.856518
  C      -0.369661     -0.008101     -0.999134
  C       0.448846      0.077582      0.119658
  C       1.945171      0.194694     -0.028501
  O       2.672555     -0.443830      1.002163
  H       0.510389      0.145188      2.250031
  H      -1.940618     -0.019018      2.512802
  H      -3.384621     -0.168424      0.516428
  H      -2.371399     -0.157320     -1.732675
  H       0.072802     -0.005744     -1.984805
  H       2.229770      1.256597      0.028617
  H       2.256336     -0.188611     -1.009503
  H       2.481141     -1.391289      0.980688
  O       2.704134      3.027543      0.171650
  O       2.588773      4.401071     -0.207645
  H       3.439973      3.053779      0.809660
  H       1.753369      4.418575     -0.706420
>
20
Coordinates from ORCA-job BnOH_H2O2_ts_scan Relaxed Surface Scan Step 5 E -32.184208334060
  C      -0.130690      0.072531      1.383879
  C      -1.503260     -0.026679      1.526176
  C      -2.313059     -0.105995      0.405762
  C      -1.743431     -0.087388     -0.856701
  C      -0.370085      0.004690     -0.998342
  C       0.447986      0.086072      0.121276
  C       1.943397      0.210150     -0.027964
  O       2.675407     -0.403783      1.014218
  H       0.508228      0.140337      2.252190
  H      -1.941544     -0.038715      2.512976
  H      -3.384416     -0.182258      0.515322
  H      -2.370787     -0.149428     -1.733442
  H       0.072765      0.016190     -1.983764
  H       2.221668      1.275873      0.008768
  H       2.257114     -0.189137     -1.001787
  H       2.493545     -1.353329      1.008917
  O       2.687523      2.993827      0.145805
  O       2.604979      4.380761     -0.199380
  H       3.421676      2.987791      0.786587
  H       1.771575      4.429118     -0.699401
>
20
Coordinates from ORCA-job BnOH_H2O2_ts_scan Relaxed Surface Scan Step 6 E -32.183061915640
  C      -0.132209      0.074471      1.383546
  C      -1.504237     -0.033040      1.525691
  C      -2.313731     -0.114051      0.405283
  C      -1.744331     -0.088278     -0.857254
  C      -0.371686      0.012100     -0.998752
  C       0.446307      0.094394      0.121044
  C       1.940539      0.226538     -0.030202
  O       2.678145     -0.360154      1.023581
  H       0.505968      0.144104      2.252246
  H      -1.942231     -0.050421      2.512553
  H      -3.384598     -0.197123      0.514729
  H      -2.371490     -0.151227     -1.734084
  H       0.071127      0.029052     -1.984100
  H       2.211058      1.296297     -0.015090
  H       2.257027     -0.189448     -0.996122
  H       2.506464     -1.311509      1.036495
  O       2.673687      2.959379      0.120922
  O       2.622919      4.360619     -0.180677
  H       3.409931      2.916593      0.758219
  H       1.789932      4.442330     -0.676931
>
20
Coordinates from ORCA-job BnOH_H2O2_ts_scan Relaxed Surface Scan Step 7 E -32.181622575670
  C      -0.132302      0.092593      1.379181
  C      -1.503117     -0.024241      1.525033
  C      -2.313991     -0.123244      0.407023
  C      -1.747083     -0.106142     -0.856749
  C      -0.375508      0.003629     -1.001890
  C       0.443876      0.104079      0.115384
  C       1.936452      0.247185     -0.039209
  O       2.680500     -0.331862      1.014606
  H       0.506857      0.175868      2.245933
  H      -1.939246     -0.034764      2.512828
  H      -3.383989     -0.213426      0.519364
  H      -2.375305     -0.183132     -1.731704
  H       0.065213      0.013918     -1.988265
  H       2.198773      1.320924     -0.025442
  H       2.254737     -0.167850     -1.004877
  H       2.514254     -1.284055      1.031879
  O       2.661539      2.927167      0.120031
  O       2.644642      4.339167     -0.149284
  H       3.391140      2.856058      0.762953
  H       1.821152      4.448754     -0.655697
>
20
Coordinates from ORCA-job BnOH_H2O2_ts_scan Relaxed Surface Scan Step 8 E -32.179821951860
  C      -0.129325      0.101098      1.377841
  C      -1.499830     -0.018226      1.524422
  C      -2.310868     -0.121860      0.406965
  C      -1.744279     -0.107109     -0.857003
  C      -0.373049      0.005482     -1.002864
  C       0.446626      0.110794      0.113847
  C       1.938114      0.259566     -0.041942
  O       2.686082     -0.311414      1.013640
  H       0.509552      0.188016      2.244409
  H      -1.935642     -0.026820      2.512389
  H      -3.380675     -0.213686      0.519858
  H      -2.372616     -0.187851     -1.731549
  H       0.067327      0.014275     -1.989398
  H       2.195039      1.337217     -0.031229
  H       2.258333     -0.156884     -1.006289
  H       2.524209     -1.264199      1.036273
  O       2.639570      2.892917      0.111072
  O       2.642041      4.313676     -0.133886
  H       3.366067      2.803866      0.755570
  H       1.821917      4.441770     -0.641029
>
20
Coordinates from ORCA-job BnOH_H2O2_ts_scan Relaxed Surface Scan Step 9 E -32.177591907680
  C      -0.125757      0.109947      1.376250
  C      -1.495913     -0.011448      1.523959
  C      -2.307453     -0.119808      0.407305
  C      -1.741516     -0.108017     -0.857000
  C      -0.370629      0.006797     -1.003983
  C       0.449668      0.117174      0.111888
  C       1.939870      0.271215     -0.045456
  O       2.692364     -0.292222      1.011154
  H       0.513161      0.200525      2.242386
  H      -1.931178     -0.017708      2.512199
  H      -3.377064     -0.212874      0.521076
  H      -2.370214     -0.192566     -1.730938
  H       0.069126      0.013541     -1.990803
  H       2.191394      1.353226     -0.036190
  H       2.262185     -0.145244     -1.008988
  H       2.535181     -1.245611      1.038741
  O       2.615434      2.858845      0.104717
  O       2.637848      4.288623     -0.116698
  H       3.335812      2.753123      0.754120
  H       1.826272      4.433110     -0.632642
>
20
Coordinates from ORCA-job BnOH_H2O2_ts_scan Relaxed Surface Scan Step 10 E -32.174861065770
  C      -0.123884      0.114924      1.375627
  C      -1.493522     -0.011149      1.524126
  C      -2.305415     -0.122053      0.408004
  C      -1.740273     -0.108040     -0.856680
  C      -0.369973      0.011609     -1.004514
  C       0.450856      0.124401      0.110897
  C       1.939574      0.284258     -0.048204
  O       2.696800     -0.266897      1.011458
  H       0.514928      0.207495      2.241608
  H      -1.928155     -0.019067      2.512643
  H      -3.374636     -0.218783      0.522421
  H      -2.369261     -0.194563     -1.730227
  H       0.069149      0.020128     -1.991588
  H       2.185782      1.371444     -0.045112
  H       2.263978     -0.135491     -1.009540
  H       2.545742     -1.220954      1.047260
  O       2.593827      2.825567      0.095729
  O       2.642713      4.265222     -0.102262
  H       3.305898      2.703540      0.751850
  H       1.844464      4.429036     -0.632402
>
20
Coordinates from ORCA-job BnOH_H2O2_ts_scan Relaxed Surface Scan Step 11 E -32.171544868250
  C      -0.122817      0.119140      1.375140
  C      -1.491812     -0.012754      1.524382
  C      -2.304026     -0.125982      0.408748
  C      -1.739812     -0.108206     -0.856362
  C      -0.370225      0.017212     -1.005035
  C       0.451146      0.131931      0.109998
  C       1.938117      0.297497     -0.050826
  O       2.700100     -0.239599      1.012578
  H       0.515914      0.213656      2.240958
  H      -1.925743     -0.023488      2.513189
  H      -3.372748     -0.227387      0.523797
  H      -2.369096     -0.196313     -1.729545
  H       0.068205      0.028604     -1.992374
  H       2.179738      1.390669     -0.055136
  H       2.265020     -0.126230     -1.009501
  H       2.556027     -1.194300      1.057595
  O       2.574504      2.792352      0.087258
  O       2.649348      4.243028     -0.087616
  H       3.280046      2.655844      0.747994
  H       1.866705      4.424954     -0.634147
>
20
Coordinates from ORCA-job BnOH_H2O2_ts_scan Relaxed Surface Scan Step 12 E -32.167556932020
  C      -0.121268      0.121149      1.375721
  C      -1.489840     -0.014968      1.524779
  C      -2.301986     -0.127394      0.409019
  C      -1.738117     -0.104280     -0.856225
  C      -0.369046      0.025410     -1.004882
  C       0.452516      0.138773      0.110415
  C       1.937813      0.307978     -0.051095
  O       2.703426     -0.218123      1.014819
  H       0.517148      0.215180      2.241816
  H      -1.923567     -0.029735      2.513627
  H      -3.370379     -0.232282      0.524000
  H      -2.367410     -0.191590     -1.729487
  H       0.069165      0.040847     -1.992245
  H       2.176189      1.408433     -0.060582
  H       2.267299     -0.117064     -1.008214
  H       2.565784     -1.173385      1.066626
  O       2.556048      2.758455      0.080006
  O       2.649091      4.221697     -0.081395
  H       3.257082      2.617588      0.745048
  H       1.878642      4.413939     -0.640656
>
20
Coordinates from ORCA-job BnOH_H2O2_ts_scan Relaxed Surface Scan Step 13 E -32.162837464860
  C      -0.120174      0.115148      1.378676
  C      -1.488626     -0.023948      1.525736
  C      -2.300090     -0.127789      0.408657
  C      -1.735666     -0.092814     -0.856169
  C      -0.366865      0.039936     -1.003119
  C       0.454320      0.143997      0.113712
  C       1.937929      0.315210     -0.046885
  O       2.706180     -0.196749      1.023042
  H       0.517400      0.202818      2.246042
  H      -1.922857     -0.047842      2.514182
  H      -3.368381     -0.235180      0.522198
  H      -2.364528     -0.173174     -1.730404
  H       0.071863      0.064659     -1.990033
  H       2.173878      1.424592     -0.063963
  H       2.271435     -0.111571     -1.001717
  H       2.576935     -1.152680      1.083054
  O       2.536819      2.724345      0.066733
  O       2.647740      4.203422     -0.088093
  H       3.234231      2.585656      0.736468
  H       1.887048      4.402590     -0.657020
>
20
Coordinates from ORCA-job BnOH_H2O2_ts_scan Relaxed Surface Scan Step 14 E -32.157393645170
  C      -0.119222      0.109601      1.381235
  C      -1.487623     -0.031217      1.526434
  C      -2.298505     -0.127406      0.408227
  C      -1.733584     -0.082752     -0.856197
  C      -0.365002      0.051841     -1.001715
  C       0.455985      0.147440      0.116521
  C       1.937335      0.318943     -0.043752
  O       2.709345     -0.175944      1.029847
  H       0.517479      0.191658      2.249741
  H      -1.922355     -0.062489      2.514430
  H      -3.366762     -0.236253      0.520489
  H      -2.362138     -0.156808     -1.731184
  H       0.074125      0.084379     -1.988173
  H       2.171161      1.439868     -0.068793
  H       2.275368     -0.107640     -0.996749
  H       2.590752     -1.132655      1.099210
  O       2.518432      2.688729      0.054608
  O       2.647027      4.190382     -0.093126
  H       3.212476      2.555934      0.728968
  H       1.894297      4.395015     -0.668925
>
20
Coordinates from ORCA-job BnOH_H2O2_ts_scan Relaxed Surface Scan Step 15 E -32.151358328000
  C      -0.118527      0.104076      1.383855
  C      -1.487052     -0.036264      1.527179
  C      -2.297273     -0.125580      0.407859
  C      -1.731664     -0.074600     -0.856184
  C      -0.363153      0.059823     -1.000458
  C       0.457477      0.148079      0.119281
  C       1.936157      0.318159     -0.040198
  O       2.712530     -0.159129      1.034970
  H       0.517404      0.181215      2.253300
  H      -1.922517     -0.072424      2.514637
  H      -3.365682     -0.233803      0.518891
  H      -2.359971     -0.143155     -1.731741
  H       0.076622      0.097710     -1.986355
  H       2.167122      1.454027     -0.072054
  H       2.279824     -0.102476     -0.993460
  H       2.609667     -1.117247      1.111074
  O       2.497001      2.652475      0.043954
  O       2.645155      4.185223     -0.092927
  H       3.189842      2.529674      0.721218
  H       1.905631      4.394843     -0.681745
>
20
Coordinates from ORCA-job BnOH_H2O2_ts_scan Relaxed Surface Scan Step 16 E -32.145060204810
  C      -0.117562      0.096471      1.387666
  C      -1.486579     -0.039655      1.528056
  C      -2.295579     -0.119542      0.406945
  C      -1.728500     -0.063272     -0.856430
  C      -0.359684      0.067322     -0.998742
  C       0.460112      0.144995      0.123281
  C       1.935368      0.308386     -0.034305
  O       2.716494     -0.149527      1.040253
  H       0.517390      0.166917      2.258263
  H      -1.923665     -0.079659      2.514550
  H      -3.364474     -0.224130      0.516059
  H      -2.356284     -0.124042     -1.732828
  H       0.081395      0.110053     -1.983728
  H       2.163475      1.464071     -0.071420
  H       2.286330     -0.098126     -0.990374
  H       2.636585     -1.109795      1.119996
  O       2.473308      2.613031      0.034841
  O       2.635649      4.189458     -0.096490
  H       3.166511      2.512067      0.714183
  H       1.908301      4.395604     -0.698681
>
20
Coordinates from ORCA-job BnOH_H2O2_ts_scan Relaxed Surface Scan Step 17 E -32.138982681420
  C      -0.127694      0.073199      1.402944
  C      -1.499050     -0.047333      1.530034
  C      -2.300157     -0.096935      0.401136
  C      -1.723266     -0.026353     -0.857440
  C      -0.352320      0.088728     -0.988029
  C       0.459851      0.134077      0.142676
  C       1.932576      0.276478     -0.002862
  O       2.707039     -0.150483      1.079582
  H       0.503076      0.118983      2.277923
  H      -1.944655     -0.098608      2.512030
  H      -3.371078     -0.188719      0.500487
  H      -2.345632     -0.062960     -1.738875
  H       0.096700      0.143906     -1.968617
  H       2.156603      1.460707     -0.055082
  H       2.296487     -0.112435     -0.959360
  H       2.799307     -1.113043      1.069598
  O       2.441237      2.563271      0.017976
  O       2.610916      4.199503     -0.143644
  H       3.123374      2.514474      0.711734
  H       1.885278      4.384169     -0.751114
>
20
Coordinates from ORCA-job BnOH_H2O2_ts_scan Relaxed Surface Scan Step 18 E -32.138779526780
  C      -0.175619     -0.210135      1.460527
  C      -1.551314     -0.277830      1.564910
  C      -2.346331     -0.076468      0.447361
  C      -1.759754      0.188861     -0.782143
  C      -0.385731      0.252623     -0.896554
  C       0.421684      0.047634      0.225069
  C       1.880955      0.120307      0.094238
  O       2.592248     -0.338349      1.149038
  H       0.452310     -0.368419      2.322888
  H      -2.007072     -0.483997      2.521140
  H      -3.420963     -0.123667      0.532586
  H      -2.379607      0.347509     -1.651173
  H       0.072655      0.467304     -1.849761
  H       2.111696      1.424200      0.031230
  H       2.255903     -0.145301     -0.894430
  H       3.531316     -0.461278      0.939352
  O       2.313970      2.490790     -0.030746
  O       2.750684      4.244032     -0.453988
  H       2.114918      2.836269      0.849351
  H       2.876644      4.126542     -1.397799
>
20
Coordinates from ORCA-job BnOH_H2O2_ts_scan Relaxed Surface Scan Step 19 E -32.273599937940
  C      -0.324774      0.190166      1.385822
  C      -1.683634     -0.042786      1.515106
  C      -2.449047     -0.328187      0.396353
  C      -1.849716     -0.398541     -0.849964
  C      -0.489574     -0.179219     -0.978288
  C       0.277850      0.118920      0.138354
  C       1.763358      0.368596     -0.015051
  O       2.451914     -0.393903      0.928515
  H       0.270909      0.395813      2.261937
  H      -2.145247     -0.000637      2.490153
  H      -3.508401     -0.510424      0.499560
  H      -2.440921     -0.625176     -1.724189
  H      -0.024793     -0.242819     -1.948413
  H       2.124227      1.987545      1.109569
  H       2.063843      0.110120     -1.037478
  H       3.388931     -0.470237      0.703001
  O       2.083403      1.739780      0.106848
  O       3.511523      4.171914      0.034319
  H       3.045356      3.350979     -0.195280
  H       3.283386      4.818721     -0.639776
>
20
Coordinates from ORCA-job BnOH_H2O2_ts_scan Relaxed Surface Scan Step 20 E -32.280562570630
  C      -0.302827     -0.376142      1.435300
  C      -1.640204     -0.728491      1.371763
  C      -2.376855     -0.460263      0.231035
  C      -1.772043      0.157534     -0.851777
  C      -0.434149      0.503245     -0.794516
  C       0.306149      0.236633      0.349856
  C       1.756168      0.670294      0.407777
  O       2.423441     -0.040087      1.404789
  H       0.281090     -0.588213      2.317215
  H      -2.106307     -1.210987      2.217405
  H      -3.420077     -0.733212      0.184385
  H      -2.342876      0.367196     -1.743429
  H       0.042821      0.982798     -1.636120
  H       1.438050      2.290708      1.475157
  H       2.227664      0.511504     -0.574743
  H       3.369263      0.165200      1.384114
  O       1.859900      2.061463      0.620822
  O       3.695914      3.268609     -1.275880
  H       3.083818      3.013597     -0.570734
  H       3.259652      3.969240     -1.771326
