20
Coordinates from ORCA-job BnOH_H2O2_ts_scan Relaxed Surface Scan Step 1 E -32.181472896230
  C      -0.154090      0.211884      1.403985
  C      -1.527766      0.095985      1.523193
  C      -2.304442     -0.136252      0.401011
  C      -1.700445     -0.252163     -0.840300
  C      -0.326588     -0.141773     -0.957951
  C       0.459110      0.091555      0.163911
  C       1.954737      0.231731      0.032130
  O       2.674499     -0.162474      1.183014
  H       0.457487      0.398201      2.274604
  H      -1.992091      0.189761      2.493632
  H      -3.376453     -0.226478      0.492224
  H      -2.302074     -0.433809     -1.718462
  H       0.142353     -0.236319     -1.926575
  H       2.205235      1.297873     -0.120363
  H       2.302542     -0.330176     -0.845260
  H       2.524124     -1.104732      1.340152
  O       2.521213      2.947884     -0.380403
  O       2.504029      4.334026     -0.010704
  H       2.889671      2.989350     -1.282343
  H       2.397542      4.296553      0.955601
>
20
Coordinates from ORCA-job BnOH_H2O2_ts_scan Relaxed Surface Scan Step 2 E -32.180382729620
  C      -0.152546      0.184921      1.417586
  C      -1.525701      0.065529      1.538898
  C      -2.306735     -0.136116      0.413758
  C      -1.707575     -0.218075     -0.832600
  C      -0.334126     -0.104830     -0.952508
  C       0.455882      0.098004      0.172276
  C       1.950091      0.245561      0.037534
  O       2.678607     -0.183316      1.170542
  H       0.462827      0.348909      2.290099
  H      -1.986476      0.132954      2.513223
  H      -3.378415     -0.228557      0.506642
  H      -2.312586     -0.374839     -1.713237
  H       0.130929     -0.172052     -1.925254
  H       2.194083      1.319271     -0.078811
  H       2.295115     -0.285159     -0.859776
  H       2.534681     -1.131127      1.297132
  O       2.547451      2.916937     -0.364623
  O       2.503467      4.330619     -0.106826
  H       3.121815      2.880541     -1.151914
  H       2.177804      4.371454      0.808955
>
20
Coordinates from ORCA-job BnOH_H2O2_ts_scan Relaxed Surface Scan Step 3 E -32.178969666010
  C      -0.150348      0.185707      1.417787
  C      -1.523210      0.063740      1.539071
  C      -2.304311     -0.135076      0.413407
  C      -1.705367     -0.211888     -0.833333
  C      -0.332090     -0.096355     -0.953247
  C       0.457978      0.103979      0.171971
  C       1.951698      0.254456      0.037486
  O       2.681273     -0.175418      1.169611
  H       0.465229      0.347598      2.290544
  H      -1.983970      0.126937      2.513694
  H      -3.375836     -0.229283      0.506346
  H      -2.310320     -0.366491     -1.714407
  H       0.132590     -0.159913     -1.926401
  H       2.194005      1.331065     -0.076012
  H       2.297814     -0.274299     -0.860479
  H       2.537808     -1.123360      1.295653
  O       2.537276      2.892129     -0.352543
  O       2.498518      4.312930     -0.115764
  H       3.111427      2.845434     -1.139815
  H       2.168427      4.368734      0.797527
>
20
Coordinates from ORCA-job BnOH_H2O2_ts_scan Relaxed Surface Scan Step 4 E -32.177316569530
  C      -0.148887      0.183756      1.419053
  C      -1.521500      0.058619      1.539792
  C      -2.302434     -0.135037      0.413117
  C      -1.703513     -0.203441     -0.834145
  C      -0.330476     -0.085044     -0.953551
  C       0.459530      0.110001      0.172744
  C       1.952649      0.263500      0.038619
  O       2.683487     -0.165166      1.170456
  H       0.466481      0.342050      2.292612
  H      -1.982235      0.115302      2.514837
  H      -3.373787     -0.231644      0.505634
  H      -2.308355     -0.353788     -1.716043
  H       0.134085     -0.142299     -1.927143
  H       2.193245      1.343143     -0.073792
  H       2.299886     -0.264204     -0.859479
  H       2.543264     -1.113664      1.295903
  O       2.526823      2.867135     -0.343170
  O       2.495143      4.295575     -0.129025
  H       3.106342      2.808191     -1.126046
  H       2.158846      4.367642      0.780723
>
20
Coordinates from ORCA-job BnOH_H2O2_ts_scan Relaxed Surface Scan Step 5 E -32.175399540510
  C      -0.147087      0.183900      1.419436
  C      -1.519356      0.055706      1.540423
  C      -2.300552     -0.135121      0.413426
  C      -1.702245     -0.197473     -0.834451
  C      -0.329502     -0.076180     -0.954169
  C       0.460859      0.115737      0.172488
  C       1.953191      0.272156      0.038146
  O       2.685994     -0.157860      1.168179
  H       0.468526      0.340209      2.293169
  H      -1.979728      0.107846      2.515902
  H      -3.371681     -0.234056      0.506171
  H      -2.307348     -0.345411     -1.716582
  H       0.134544     -0.128591     -1.928279
  H       2.192216      1.355399     -0.070796
  H       2.300890     -0.251871     -0.861919
  H       2.547675     -1.106835      1.292025
  O       2.515573      2.842808     -0.330874
  O       2.490075      4.279868     -0.142395
  H       3.109332      2.770589     -1.101925
  H       2.147215      4.369807      0.763120
>
20
Coordinates from ORCA-job BnOH_H2O2_ts_scan Relaxed Surface Scan Step 6 E -32.174206601010
  C      -0.084815      0.095780      1.411343
  C      -1.448193     -0.042558      1.602017
  C      -2.294665     -0.146499      0.511423
  C      -1.770348     -0.113133     -0.770510
  C      -0.406607      0.018721     -0.960560
  C       0.449109      0.124469      0.129311
  C       1.930053      0.298286     -0.078992
  O       2.727840     -0.215213      0.969511
  H       0.579551      0.184128      2.258266
  H      -1.850512     -0.065419      2.603897
  H      -3.358966     -0.252638      0.658673
  H      -2.426561     -0.193795     -1.624371
  H       0.000803      0.042458     -1.960887
  H       2.161929      1.389152     -0.112359
  H       2.229776     -0.142178     -1.039159
  H       2.589279     -1.169574      1.035175
  O       2.561806      2.836397     -0.005593
  O       2.618692      4.271163     -0.247085
  H       3.245597      2.738178      0.683362
  H       1.894821      4.402902     -0.882366
>
20
Coordinates from ORCA-job BnOH_H2O2_ts_scan Relaxed Surface Scan Step 7 E -32.171762111730
  C      -0.083380      0.098880      1.412091
  C      -1.446680     -0.040790      1.601869
  C      -2.292586     -0.144117      0.510739
  C      -1.767727     -0.108757     -0.770925
  C      -0.404047      0.024508     -0.960179
  C       0.451200      0.129530      0.130276
  C       1.931298      0.304709     -0.077599
  O       2.730530     -0.204092      0.971777
  H       0.580769      0.186403      2.259279
  H      -1.849633     -0.065279      2.603466
  H      -3.356840     -0.251440      0.657497
  H      -2.423391     -0.188981     -1.625258
  H       0.003704      0.049696     -1.960320
  H       2.161738      1.399719     -0.112351
  H       2.232661     -0.134863     -1.037570
  H       2.601367     -1.159831      1.035637
  O       2.547459      2.810791     -0.011472
  O       2.612409      4.253339     -0.244908
  H       3.230195      2.710358      0.678746
  H       1.889548      4.390842     -0.879697
>
20
Coordinates from ORCA-job BnOH_H2O2_ts_scan Relaxed Surface Scan Step 8 E -32.168965796390
  C      -0.082067      0.104547      1.411317
  C      -1.445006     -0.038111      1.601407
  C      -2.290822     -0.144751      0.510530
  C      -1.766272     -0.109404     -0.771310
  C      -0.403030      0.026956     -0.960966
  C       0.452286      0.134836      0.129309
  C       1.931297      0.312114     -0.079261
  O       2.732552     -0.189740      0.971822
  H       0.581819      0.194602      2.258444
  H      -1.847745     -0.062476      2.603095
  H      -3.354784     -0.254614      0.657527
  H      -2.421940     -0.192141     -1.625402
  H       0.004585      0.052004     -1.961154
  H       2.160251      1.411687     -0.117372
  H       2.234127     -0.128963     -1.038027
  H       2.605549     -1.145313      1.041500
  O       2.535499      2.785290     -0.018451
  O       2.614017      4.237624     -0.236658
  H       3.219173      2.677821      0.670251
  H       1.889103      4.388659     -0.865507
>
20
Coordinates from ORCA-job BnOH_H2O2_ts_scan Relaxed Surface Scan Step 9 E -32.165795075840
  C      -0.081506      0.105726      1.411672
  C      -1.444214     -0.039582      1.601189
  C      -2.289695     -0.145539      0.509986
  C      -1.765041     -0.106572     -0.771765
  C      -0.402119      0.032579     -0.961005
  C       0.453064      0.139307      0.129708
  C       1.930834      0.318364     -0.078951
  O       2.734104     -0.171892      0.975610
  H       0.581938      0.195198      2.259194
  H      -1.847093     -0.066695      2.602752
  H      -3.353466     -0.257677      0.656618
  H      -2.420489     -0.188686     -1.626086
  H       0.005627      0.060430     -1.961047
  H       2.158020      1.423424     -0.123849
  H       2.236404     -0.125820     -1.035328
  H       2.612977     -1.127634      1.052514
  O       2.523677      2.759439     -0.028599
  O       2.617264      4.223061     -0.234049
  H       3.209626      2.646608      0.657337
  H       1.888680      4.386586     -0.854806
>
20
Coordinates from ORCA-job BnOH_H2O2_ts_scan Relaxed Surface Scan Step 10 E -32.162237582950
  C      -0.081272      0.099874      1.413819
  C      -1.444015     -0.047446      1.601448
  C      -2.288857     -0.146085      0.509088
  C      -1.763557     -0.097613     -0.772169
  C      -0.400760      0.043607     -0.959759
  C       0.454034      0.142521      0.132299
  C       1.930495      0.322988     -0.075556
  O       2.735650     -0.151449      0.983982
  H       0.581362      0.183999      2.262501
  H      -1.847428     -0.081909      2.602565
  H      -3.352635     -0.259864      0.654342
  H      -2.418600     -0.173780     -1.627343
  H       0.007578      0.079014     -1.959293
  H       2.155433      1.434513     -0.130455
  H       2.240025     -0.125768     -1.028426
  H       2.621984     -1.107245      1.070631
  O       2.510999      2.733310     -0.042252
  O       2.619909      4.209728     -0.240661
  H       3.199497      2.619451      0.641262
  H       1.888748      4.382781     -0.854927
>
20
Coordinates from ORCA-job BnOH_H2O2_ts_scan Relaxed Surface Scan Step 11 E -32.158299705160
  C      -0.080716      0.100679      1.414252
  C      -1.443345     -0.047914      1.601196
  C      -2.287819     -0.145651      0.508443
  C      -1.762267     -0.094891     -0.772701
  C      -0.399675      0.047695     -0.959892
  C       0.455000      0.145419      0.132733
  C       1.929823      0.326167     -0.074997
  O       2.737484     -0.137640      0.986306
  H       0.581392      0.184275      2.263368
  H      -1.847015     -0.084104      2.602134
  H      -3.351536     -0.260415      0.653263
  H      -2.417141     -0.170205     -1.628063
  H       0.008820      0.085123     -1.959253
  H       2.153542      1.445903     -0.134186
  H       2.242446     -0.121655     -1.027048
  H       2.630356     -1.093636      1.078960
  O       2.499295      2.707019     -0.047475
  O       2.619719      4.200148     -0.238707
  H       3.193694      2.594578      0.630232
  H       1.886536      4.379732     -0.847469
>
20
Coordinates from ORCA-job BnOH_H2O2_ts_scan Relaxed Surface Scan Step 12 E -32.154025227130
  C      -0.079870      0.099000      1.415504
  C      -1.442594     -0.049363      1.601264
  C      -2.286599     -0.143794      0.507799
  C      -1.760526     -0.090022     -0.773103
  C      -0.397947      0.052420     -0.959506
  C       0.456478      0.146568      0.134047
  C       1.929523      0.326309     -0.073067
  O       2.739920     -0.126118      0.989137
  H       0.581718      0.180185      2.265218
  H      -1.846820     -0.087893      2.601861
  H      -3.350434     -0.258203      0.651848
  H      -2.415180     -0.162624     -1.628833
  H       0.010989      0.092514     -1.958535
  H       2.151633      1.455907     -0.136694
  H       2.245839     -0.117952     -1.025308
  H       2.641463     -1.082558      1.087201
  O       2.485385      2.680138     -0.054356
  O       2.618287      4.194024     -0.239563
  H       3.181713      2.573646      0.622269
  H       1.885614      4.378444     -0.846087
>
20
Coordinates from ORCA-job BnOH_H2O2_ts_scan Relaxed Surface Scan Step 13 E -32.149517421500
  C      -0.078989      0.097045      1.417241
  C      -1.441965     -0.049749      1.601432
  C      -2.285243     -0.140567      0.506993
  C      -1.758340     -0.084587     -0.773592
  C      -0.395647      0.056547     -0.958971
  C       0.458309      0.146332      0.135834
  C       1.929321      0.322689     -0.070220
  O       2.742468     -0.118510      0.991597
  H       0.581992      0.175570      2.267621
  H      -1.847113     -0.089836      2.601543
  H      -3.349313     -0.253689      0.650027
  H      -2.412643     -0.154172     -1.629782
  H       0.014047      0.098703     -1.957536
  H       2.150095      1.464339     -0.137147
  H       2.249781     -0.114096     -1.024155
  H       2.655300     -1.075795      1.093173
  O       2.470500      2.652125     -0.060428
  O       2.614475      4.192575     -0.241336
  H       3.169132      2.556790      0.615071
  H       1.882424      4.378913     -0.846270
>
20
Coordinates from ORCA-job BnOH_H2O2_ts_scan Relaxed Surface Scan Step 14 E -32.144938898510
  C      -0.078196      0.096485      1.419039
  C      -1.441644     -0.046246      1.601437
  C      -2.283895     -0.134571      0.505826
  C      -1.755707     -0.080089     -0.774444
  C      -0.392669      0.057319     -0.958742
  C       0.460518      0.143678      0.137587
  C       1.929160      0.314081     -0.066867
  O       2.745448     -0.115156      0.993001
  H       0.582162      0.173352      2.269948
  H      -1.848223     -0.084951      2.600948
  H      -3.348415     -0.244310      0.647725
  H      -2.409537     -0.147502     -1.631083
  H       0.018217      0.098793     -1.956753
  H       2.147872      1.470517     -0.136035
  H       2.254526     -0.109965     -1.024402
  H       2.676909     -1.074249      1.093761
  O       2.453803      2.622130     -0.064796
  O       2.607159      4.195981     -0.240305
  H       3.156970      2.542892      0.607197
  H       1.874132      4.382439     -0.841946
>
20
Coordinates from ORCA-job BnOH_H2O2_ts_scan Relaxed Surface Scan Step 15 E -32.140484489190
  C      -0.082984      0.092903      1.425484
  C      -1.447831     -0.040579      1.601702
  C      -2.286091     -0.120792      0.502080
  C      -1.752773     -0.067598     -0.776308
  C      -0.388357      0.060611     -0.955426
  C       0.461027      0.137371      0.145429
  C       1.927844      0.295232     -0.052653
  O       2.742214     -0.115447      1.009914
  H       0.575596      0.163052      2.278129
  H      -1.859068     -0.078177      2.599242
  H      -3.351886     -0.222922      0.639512
  H      -2.403980     -0.128211     -1.635336
  H       0.026590      0.101959     -1.951643
  H       2.143591      1.470974     -0.127015
  H       2.261080     -0.114160     -1.012553
  H       2.765326     -1.080864      1.059555
  O       2.434729      2.587014     -0.071240
  O       2.593093      4.202680     -0.254258
  H       3.140918      2.534684      0.598621
  H       1.849555      4.382897     -0.842143
>
20
Coordinates from ORCA-job BnOH_H2O2_ts_scan Relaxed Surface Scan Step 16 E -32.140217302550
  C      -0.134011     -0.203687      1.491769
  C      -1.505926     -0.291911      1.634270
  C      -2.333637     -0.101881      0.539496
  C      -1.784045      0.172380     -0.704451
  C      -0.414170      0.255902     -0.855139
  C       0.425299      0.063873      0.243159
  C       1.886224      0.166927      0.070899
  O       2.625135     -0.278235      1.125360
  H       0.518560     -0.352897      2.337454
  H      -1.931535     -0.505683      2.602692
  H      -3.404894     -0.165035      0.653614
  H      -2.428427      0.322426     -1.557063
  H       0.014984      0.476973     -1.820577
  H       2.095242      1.424425     -0.036574
  H       2.230583     -0.159424     -0.912008
  H       3.557347     -0.394709      0.888417
  O       2.300200      2.517504     -0.126880
  O       2.700401      4.200852     -0.606413
  H       2.125514      2.855121      0.763203
  H       2.805748      4.057706     -1.550130
>
20
Coordinates from ORCA-job BnOH_H2O2_ts_scan Relaxed Surface Scan Step 17 E -32.138405828810
  C      -0.140613     -0.203239      1.498616
  C      -1.511942     -0.281146      1.642000
  C      -2.338767     -0.105141      0.543016
  C      -1.789114      0.145282     -0.706760
  C      -0.419812      0.219395     -0.860557
  C       0.420550      0.039343      0.242363
  C       1.870693      0.119258      0.068710
  O       2.623548     -0.292750      1.106851
  H       0.511896     -0.341082      2.346203
  H      -1.939575     -0.475671      2.613355
  H      -3.410142     -0.160151      0.658781
  H      -2.434027      0.284518     -1.560584
  H       0.010036      0.423210     -1.829179
  H       2.068220      1.453928     -0.030807
  H       2.227958     -0.136831     -0.928249
  H       3.556322     -0.413136      0.867801
  O       2.301286      2.501536     -0.119050
  O       2.758029      4.273069     -0.591571
  H       2.145068      2.875640      0.757225
  H       2.838977      4.134593     -1.537067
>
20
Coordinates from ORCA-job BnOH_H2O2_ts_scan Relaxed Surface Scan Step 18 E -32.278269206240
  C      -0.217292     -0.346214      1.498939
  C      -1.576226     -0.569786      1.355207
  C      -2.223140     -0.192778      0.191279
  C      -1.508480      0.406196     -0.834018
  C      -0.149785      0.624972     -0.697771
  C       0.499795      0.248617      0.471775
  C       1.980125      0.537885      0.608715
  O       2.508232     -0.165808      1.691718
  H       0.297587     -0.641524      2.399840
  H      -2.128690     -1.038522      2.155440
  H      -3.282874     -0.366629      0.080926
  H      -2.009905      0.698988     -1.743704
  H       0.413920      1.091034     -1.492478
  H       1.720492      2.273465      1.572628
  H       2.489989      0.260667     -0.328374
  H       3.464311     -0.022466      1.742697
  O       2.225816      1.917961      0.738667
  O       2.255461      2.844522     -2.017951
  H       2.356156      2.701707     -1.065463
  H       2.233099      3.798341     -2.146976
