
                                 *****************
                                 * O   R   C   A *
                                 *****************

                                            #,                                       
                                            ###                                      
                                            ####                                     
                                            #####                                    
                                            ######                                   
                                           ########,                                 
                                     ,,################,,,,,                         
                               ,,#################################,,                 
                          ,,##########################################,,             
                       ,#########################################, ''#####,          
                    ,#############################################,,   '####,        
                  ,##################################################,,,,####,       
                ,###########''''           ''''###############################       
              ,#####''   ,,,,##########,,,,          '''####'''          '####       
            ,##' ,,,,###########################,,,                        '##       
           ' ,,###''''                  '''############,,,                           
         ,,##''                                '''############,,,,        ,,,,,,###''
      ,#''                                            '''#######################'''  
     '                                                          ''''####''''         
             ,#######,   #######,   ,#######,      ##                                
            ,#'     '#,  ##    ##  ,#'     '#,    #''#        ,####,    ,#,          
            ##       ##  ##   ,#'  ##            #'  '#       #'       ,# #          
            ##       ##  #######   ##           ,######,      #####,      #          
            '#,     ,#'  ##    ##  '#,     ,#' ,#      #,     #,   #      #          
             '#######'   ##     ##  '#######'  #'      '#     '####' #    #          



                #########################################################
                #                        -***-                          #
                #          Department of theory and spectroscopy        #
                #                                                       #
                #                      Frank Neese                      #
                #                                                       #
                #     Directorship, Architecture, Infrastructure        #
                #                    SHARK, DRIVERS                     #
                #        Core code/Algorithms in most modules           #
                #                                                       #
                #        Max Planck Institute fuer Kohlenforschung      #
                #                Kaiser Wilhelm Platz 1                 #
                #                 D-45470 Muelheim/Ruhr                 #
                #                      Germany                          #
                #                                                       #
                #                  All rights reserved                  #
                #                        -***-                          #
                #########################################################


                         Program Version 6.1.0  -  RELEASE   -
                                (GIT: $679e74b$)
                          ($2025-06-10 18:02:51 +0200$)


 With contributions from (in alphabetic order):
[Max-Planck-Institut fuer Kohlenforschung]                               
  Daniel Aravena         : Magnetic Suceptibility                        
  Michael Atanasov       : Ab Initio Ligand Field Theory (pilot matlab implementation)
  Alexander A. Auer      : GIAO ZORA, VPT2 properties, NMR spectrum      
  Ute Becker             : All parallelization in ORCA, NUMFREQ, NUMCALC 
  Giovanni Bistoni       : ED, misc. LED, open-shell LED, HFLD           
  Dmytro Bykov           : pre 5.0 version of the SCF Hessian            
  Marcos Casanova-Páez   : Triplet and SCS-CIS(D). UHF-(DLPNO)-IP/EA/STEOM-CCSD. UHF-CVS-IP/STEOM-CCSD   
  Vijay G. Chilkuri      : MRCI spin determinant printing, contributions to CSF-ICE 
  Pauline Colinet        : FMM embedding                                 
  Dipayan Datta          : RHF DLPNO-CCSD density                        
  Achintya Kumar Dutta   : EOM-CC, STEOM-CC                              
  Nicolas Foglia         : Exact transition moments, OPA infrastructure, MCD improvements    
  Dmitry Ganyushin       : Spin-Orbit,Spin-Spin,Magnetic field MRCI      
  Miquel Garcia-Rates    : C-PCM and meta-GGA Hessian, CCSD/C-PCM, Gaussian charge scheme 
  Tiago L. C. Gouveia    : GS-ROHF, GS-ROCIS                             
  Yang Guo               : DLPNO-NEVPT2, F12-NEVPT2, CIM, IAO-localization        
  Andreas Hansen         : Spin unrestricted coupled pair/coupled cluster methods 
  Ingolf Harden          : AUTO-CI MPn and infrastructure                
  Benjamin Helmich-Paris : MC-RPA, TRAH-(SCF,CASSCF), AVAS, COSX integrals, SCF dyn. polar., MC-PDFT, srDFT 
  Lee Huntington         : MR-EOM, pCC                                   
  Robert Izsak           : Overlap fitted RIJCOSX, COSX-SCS-MP3, EOM     
  Riya Kayal             : Wick's Theorem for AUTO-CI, AUTO-CI UHF-CCSDT 
  Emily Kempfer          : AUTO-CI RHF CISDT and CCSDT, approximate NEVPT4
  Christian Kollmar      : KDIIS, OOCD, Brueckner-CCSD(T), CCSD density, CASPT2, CASPT2-K, improved NEVPT2 
  Axel Koslowski         : Symmetry handling                             
  Simone Kossmann        : meta-GGA functionals, TD-DFT gradient, OOMP2, (MP2 Hessian; deprecated post 5.0) 
  Lucas Lang             : DCDCAS, Hyperfine gauge corrections, ICE-SOC+SSC
  Marvin Lechner         : AUTO-CI (C++ implementation), FIC-MRCC        
  Spencer Leger          : CASSCF response                               
  Dagmar Lenk            : GEPOL surface, SMD, ORCA-2-JSON               
  Dimitrios Liakos       : Extrapolation schemes; Compound Job, Property file
  Dimitrios Manganas     : Further ROCIS development; embedding schemes. LFT, Crystal Embedding 
  Dimitrios Pantazis     : SARC Basis sets                               
  Anastasios Papadopoulos: AUTO-CI, single reference methods and gradients 
  Taras Petrenko         : pre 6.0 DFT Hessian and TD-DFT gradient,  ECA, NRVS 
  Petra Pikulova         : Analytic Raman intensities                    
  Peter Pinski           : DLPNO-MP2, DLPNO-MP2 Gradient                 
  Shashank Vittal Rao    : ES-AILFT, MagRelax                            
  Christoph Reimann      : Effective Core Potentials                     
  Marius Retegan         : Local ZFS, SOC                                
  Christoph Riplinger    : Optimizer, TS searches, QM/MM, DLPNO-CCSD(T), (RO)-DLPNO pert. Triples 
  Michael Roemelt        : Original ROCIS implementation, recursive CI coupling coefficients
  Masaaki Saitow         : Open-shell DLPNO-CCSD energy and density      
  Barbara Sandhoefer     : DKH picture change effects                    
  Yorick L. A. Schmerwitz: GMF and freeze-and-release deltaSCF, NEB S-IDPP initial path                    
  Kantharuban Sivalingam : CASSCF convergence/infrastructure, NEVPT2, NEVPT3, NEVPT4(SD), FIC-MRCI and CEPA variants
  Bernardo de Souza      : ESD, SOC TD-DFT                               
  Georgi L. Stoychev     : AutoAux, RI-MP2 NMR, DLPNO-MP2 response, X2C  
  Van Anh Tran           : RI-MP2 g-tensors                              
  Willem Van den Heuvel  : Paramagnetic NMR                              
  Zikuan Wang            : NOTCH, Electric field optimization            
  Frank Wennmohs         : Technical directorship and infrastructure     
  Hang Xu                : AUTO-CI-Response properties                   
                                                                         
[FACCTs GmbH]                                                            
  Markus Bursch, Nicolas Foglia, Miquel Garcia-Rates, Ingolf Harden, Hagen Neugebauer, Anastasios Papadopoulos, 
  Christoph Riplinger, Bernardo de Souza, Georgi L. Stoychev                                                    
                                                                 
  APM, various basis sets, CI-OPT, improved COSX, DLPNO-Multilevel,           
  DOCKER, DRACO, updates on ESD, Fragmentator, GOAT, IRC, LR-CPCM, L-BFGS, MBIS, meta-GGA TD-DFT gradient, ML-optimized integration grids, 
  MM, NACMEs, nearIR, NEB, NEB-TS, NL-DFT gradient (VV10), 2- and 3-layer-ONIOM, interface openCOSMO-RS, QMMM,   
  Crystal-QMMM, RESP, rigid body optimization, SF, symmetry and pop. for TD-DFT, various functionals, SOLVATOR                                   
                                                                         
[Other institutions]                                                     
  V. Asgeirsson          : NEB                                           
  Christoph Bannwarth    : sTDA-DFT, sTD-DFT, PBEh-3c, B97-3c, D3        
  Giovanni Bistoni       : ETS/NOCV, ADLD/ADEX, COVALED                  
  Martin Brehm           : Molecular dynamics                            
  Ronald Cardenas        : ETS/NOCV                                      
  Martina Colucci        : COVALED                                       
  Sebastian Ehlert       : rSCAN, r2SCAN, r2SCAN-3c, D4, dhf basis sets  
  Marvin Friede          : D4 for Fr, Ra, Ac-Lr                          
  Lars Goerigk           : TD-DFT with DH, B97 family of functionals     
  Stefan Grimme          : VdW corrections, initial TS optimization, DFT functionals, gCP, sTDA/sTD-DF 
  Waldemar Hujo          : DFT-NL                                        
  H. Jonsson             : NEB                                           
  Holger Kruse           : gCP                                           
  Marcel Mueller         : wB97X-3c, vDZP basis set                      
  Hagen Neugebauer       : wr2SCAN, Native XTB                           
  Gianluca Regni         : ADLD/ADEX                                     
  Tobias Risthaus        : pre 6.0 range-separated hybrid DFT and stability analysis
  Lukas Wittmann         : regularized MP2, r2SCAN double-hybrids, wr2SCAN        
                                                                         
We gratefully acknowledge several colleagues who have allowed us to      
interface, adapt or use parts of their codes:                            
  Ed Valeev, F. Pavosevic, A. Kumar             : LibInt (2-el integral package), F12 methods 
  Garnet Chan, S. Sharma, J. Yang, R. Olivares  : DMRG                   
  Ulf Ekstrom                                   : XCFun DFT Library      
  Mihaly Kallay                                 : mrcc  (arbitrary order and MRCC methods)
  Frank Weinhold                                : gennbo (NPA and NBO analysis)           
  Simon Mueller                                 : openCOSMO-RS                            
  Christopher J. Cramer and Donald G. Truhlar   : smd solvation model                     
  S Lehtola, MJT Oliveira, MAL Marques          : LibXC Library                           
  Liviu Ungur et al                             : ANISO software                          


 Your calculation uses the libint2 library for the computation of 2-el integrals
 For citations please refer to: http://libint.valeyev.net

 Your ORCA version has been built with support for libXC version: 7.0.0
 For citations please refer to: https://libxc.gitlab.io

 This ORCA versions uses:
   CBLAS   interface :  Fast vector & matrix operations
   LAPACKE interface :  Fast linear algebra routines
   SCALAPACK package :  Parallel linear algebra routines
   Shared memory     :  Shared parallel matrices
   BLAS/LAPACK       :  OpenBLAS 0.3.29  USE64BITINT DYNAMIC_ARCH NO_AFFINITY Haswell SINGLE_THREADED
        Core in use  :  Haswell
   Copyright (c) 2011-2014, The OpenBLAS Project


  ***********************************
  * Starting time: Sat Jul  5 23:08:52 2025
  * Host name:     madsr2d2
  * Process ID:    665444
  * Working dir.:  /home/madsr2d2/chem/comp_chem/BnOH_plus_H2O2/xtb/ts/ts_opt
  ***********************************

NOTE: MaxCore=2200 MB was set to SCF,MP2,MDCI,CIPSI,MRCI,RASCI and CIS
      => If you want to overwrite this, your respective input block should be placed after the MaxCore statement
Your calculation utilizes the semiempirical GFN2-xTB method
Please cite in your paper:
Bannwarth, C.; Ehlert S.; Grimme, S. J. Chem. Theory Comput. 2019, 15, 1652.
   

================================================================================

================================================================================
                                        WARNINGS
                       Please study these warnings very carefully!
================================================================================


WARNING: Analytical Hessian for XTB is limited in the analysis of the data.
       : If you want to obtain extensive IR and deltaG analysis, please use ! XTB NumFreq. 


WARNING: Geometry Optimization
  ===> : Switching off AutoStart
         For restart on a previous wavefunction, please use MOREAD

WARNING: Found dipole moment calculation with XTB calculation
  ===> : Switching off dipole moment calculation


WARNING: Found frequency calculation in combination with XTB calculation
  ===> : Need to redirect dipole moment calculation to properties.out


================================================================================
                                       INPUT FILE
================================================================================
NAME = BnOH_H2O2_ts_opt.inp
|  1> !xtb
|  2> !alpb(water)
|  3> !optts
|  4> !slowconv
|  5> !tightscf
|  6> !freq
|  7> !irc
|  8> %maxcore 2200
|  9> %pal
| 10>     nprocs 12
| 11> end
| 12> 
| 13> %geom
| 14>     maxiter 1000
| 15>     cartfallback true
| 16>     calc_hess true
| 17>     recalc_hess 25
| 18> end
| 19> 
| 20> %irc
| 21>     maxiter 100
| 22> end
| 23> 
| 24> %output
| 25>     jsonpropfile true
| 26>     jsongbwfile true
| 27> end
| 28> 
| 29> * xyz 0 1
| 30> C            -0.1406132296106300            -0.2032387250596200             1.4986155701861701
| 31> C            -1.5119421371186199            -0.2811458670052200             1.6420000949993401
| 32> C            -2.3387672997633202            -0.1051409346570700             0.5430157813111800
| 33> C            -1.7891140324979100             0.1452821230530100            -0.7067603229813600
| 34> C            -0.4198118637259400             0.2193954656026500            -0.8605567249466800
| 35> C             0.4205501801550400             0.0393430092004300             0.2423633331887700
| 36> C             1.8706932921892701             0.1192581425689400             0.0687096035143800
| 37> O             2.6235478542059099            -0.2927504771630400             1.1068508195063300
| 38> H             0.5118960526377000            -0.3410824572864100             2.3462033457517202
| 39> H            -1.9395751915630299            -0.4756705594642800             2.6133553451023501
| 40> H            -3.4101418585111198            -0.1601507699758400             0.6587808010424000
| 41> H            -2.4340267198721199             0.2845184271687000            -1.5605842553834599
| 42> H             0.0100364966403800             0.4232096008270600            -1.8291794840178199
| 43> H             2.0682202866646202             1.4539284553137599            -0.0308067956072600
| 44> H             2.2279583470766502            -0.1368313863116400            -0.9282491942455100
| 45> H             3.5563218549357400            -0.4131355617795000             0.8678013448612300
| 46> O             2.3012856888985000             2.5015364430051901            -0.1190504575441800
| 47> O             2.7580293213898002             4.2730685093689003            -0.5915714328911800
| 48> H             2.1450675508333301             2.8756401419680500             0.7572254384682600
| 49> H             2.8389771813000699             4.1345933457974997            -1.5370669324683000
| 50> *
| 51> 
| 52>                          ****END OF INPUT****
================================================================================

                       *****************************
                       * Geometry Optimization Run *
                       *****************************

Geometry optimization settings:
Update method            Update   .... Bofill
Choice of coordinates    CoordSys .... (2022) Redundant Internals
Initial Hessian          InHess   .... Almloef's Model
Max. no of cycles        MaxIter  .... 1000

Convergence Tolerances:
Energy Change            TolE     ....  5.0000e-06 Eh
Max. Gradient            TolMAXG  ....  3.0000e-04 Eh/bohr
RMS Gradient             TolRMSG  ....  1.0000e-04 Eh/bohr
Max. Displacement        TolMAXD  ....  4.0000e-03 bohr
RMS Displacement         TolRMSD  ....  2.0000e-03 bohr
Strict Convergence                .... False

------------------------------------------------------------------------------
                        ORCA OPTIMIZATION COORDINATE SETUP
------------------------------------------------------------------------------

The optimization will be done in redundant internal coordinates (2022)
Making redundant internal coordinates   ...  (2022 redundants) done
Following TS mode number                ...     0
Evaluating the initial hessian          ...  (Is done on the fly) done
Evaluating the coordinates              ...  done
Calculating the B-matrix                .... done
Calculating the G-matrix                .... done
The number of degrees of freedom        ....   93

    -----------------------------------------------------------------
                    Redundant Internal Coordinates


    -----------------------------------------------------------------
         Definition                    Initial Value    d2E/dq (diagonal element)
    -----------------------------------------------------------------
      1. B(C   1,C   0)                  1.3810         0.000000   
      2. B(C   2,C   1)                  1.3865         0.000000   
      3. B(C   3,C   2)                  1.3881         0.000000   
      4. B(C   4,C   3)                  1.3799         0.000000   
      5. B(C   5,C   4)                  1.3982         0.000000   
      6. B(C   5,C   0)                  1.3971         0.000000   
      7. B(C   6,C   5)                  1.4627         0.000000   
      8. B(O   7,C   6)                  1.3470         0.000000   
      9. B(H   8,C   0)                  1.0785         0.000000   
     10. B(H   9,C   1)                  1.0790         0.000000   
     11. B(H  10,C   2)                  1.0790         0.000000   
     12. B(H  11,C   3)                  1.0790         0.000000   
     13. B(H  12,C   4)                  1.0791         0.000000   
     14. B(H  13,C   6)                  1.3529         0.000000   
     15. B(H  13,O   7)                  2.1572         0.000000   
     16. B(H  14,C   6)                  1.0896         0.000000   
     17. B(H  15,O   7)                  0.9704         0.000000   
     18. B(O  16,H  13)                  1.0768         0.000000   
     19. B(O  17,O  16)                  1.8895         0.000000   
     20. B(H  18,O  16)                  0.9655         0.000000   
     21. B(H  19,O  17)                  0.9590         0.000000   
     22. A(C   1,C   0,C   5)          120.1324         0.000000   
     23. A(C   1,C   0,H   8)          120.7950         0.000000   
     24. A(C   5,C   0,H   8)          119.0674         0.000000   
     25. A(C   0,C   1,C   2)          120.1791         0.000000   
     26. A(C   0,C   1,H   9)          119.8140         0.000000   
     27. A(C   2,C   1,H   9)          120.0065         0.000000   
     28. A(C   1,C   2,H  10)          120.0401         0.000000   
     29. A(C   3,C   2,H  10)          119.9320         0.000000   
     30. A(C   1,C   2,C   3)          120.0277         0.000000   
     31. A(C   2,C   3,C   4)          120.1972         0.000000   
     32. A(C   4,C   3,H  11)          119.8652         0.000000   
     33. A(C   2,C   3,H  11)          119.9375         0.000000   
     34. A(C   3,C   4,C   5)          120.1038         0.000000   
     35. A(C   5,C   4,H  12)          119.5336         0.000000   
     36. A(C   3,C   4,H  12)          120.3612         0.000000   
     37. A(C   0,C   5,C   6)          120.9610         0.000000   
     38. A(C   0,C   5,C   4)          119.3552         0.000000   
     39. A(C   4,C   5,C   6)          119.6815         0.000000   
     40. A(H  13,C   6,H  14)           96.7014         0.000000   
     41. A(O   7,C   6,H  14)          116.7476         0.000000   
     42. A(C   5,C   6,H  14)          114.8899         0.000000   
     43. A(O   7,C   6,H  13)          106.0725         0.000000   
     44. A(C   5,C   6,H  13)          101.9693         0.000000   
     45. A(C   5,C   6,O   7)          116.4824         0.000000   
     46. A(C   6,O   7,H  15)          112.6647         0.000000   
     47. L(C   6,H  13,O  16,O   7, 2) 174.4155         0.000000   
     48. L(C   6,H  13,O  16,O   7, 1) 177.6935         0.000000   
     49. A(O  17,O  16,H  18)           84.4220         0.000000   
     50. A(H  13,O  16,H  18)          105.5189         0.000000   
     51. A(H  13,O  16,O  17)          170.0383         0.000000   
     52. A(O  16,O  17,H  19)           97.5608         0.000000   
     53. D(H   9,C   1,C   0,C   5)    179.5665         0.000000   
     54. D(C   2,C   1,C   0,H   8)   -179.8390         0.000000   
     55. D(C   2,C   1,C   0,C   5)     -0.6781         0.000000   
     56. D(H   9,C   1,C   0,H   8)      0.4056         0.000000   
     57. D(C   3,C   2,C   1,C   0)      0.2376         0.000000   
     58. D(C   3,C   2,C   1,H   9)    179.9925         0.000000   
     59. D(H  10,C   2,C   1,H   9)      0.1502         0.000000   
     60. D(H  10,C   2,C   1,C   0)   -179.6048         0.000000   
     61. D(H  11,C   3,C   2,H  10)     -0.0021         0.000000   
     62. D(H  11,C   3,C   2,C   1)   -179.8447         0.000000   
     63. D(C   4,C   3,C   2,H  10)    179.8718         0.000000   
     64. D(C   4,C   3,C   2,C   1)      0.0293         0.000000   
     65. D(C   5,C   4,C   3,H  11)   -179.9797         0.000000   
     66. D(H  12,C   4,C   3,C   2)   -179.4196         0.000000   
     67. D(C   5,C   4,C   3,C   2)      0.1463         0.000000   
     68. D(H  12,C   4,C   3,H  11)      0.4544         0.000000   
     69. D(C   6,C   5,C   4,H  12)     -0.4573         0.000000   
     70. D(C   0,C   5,C   4,H  12)    178.9890         0.000000   
     71. D(C   0,C   5,C   4,C   3)     -0.5804         0.000000   
     72. D(C   6,C   5,C   0,H   8)     -0.5394         0.000000   
     73. D(C   6,C   5,C   0,C   1)   -179.7147         0.000000   
     74. D(C   6,C   5,C   4,C   3)    179.9733         0.000000   
     75. D(C   4,C   5,C   0,H   8)   -179.9785         0.000000   
     76. D(C   4,C   5,C   0,C   1)      0.8462         0.000000   
     77. D(H  14,C   6,C   5,C   4)    -26.8997         0.000000   
     78. D(H  14,C   6,C   5,C   0)    153.6630         0.000000   
     79. D(H  13,C   6,C   5,C   4)     76.3892         0.000000   
     80. D(H  13,C   6,C   5,C   0)   -103.0481         0.000000   
     81. D(O   7,C   6,C   5,C   4)   -168.6625         0.000000   
     82. D(O   7,C   6,C   5,C   0)     11.9002         0.000000   
     83. D(H  15,O   7,C   6,C   5)    166.6421         0.000000   
     84. D(H  15,O   7,C   6,H  14)     25.5967         0.000000   
     85. D(H  15,O   7,C   6,H  13)    -80.7351         0.000000   
     86. D(H  18,O  16,C   6,O   7)    -52.5125         0.000000   
     87. D(H  18,O  16,C   6,C   5)     70.3027         0.000000   
     88. D(O  17,O  16,C   6,H  14)     -0.6610         0.000000   
     89. D(O  17,O  16,C   6,O   7)    119.0871         0.000000   
     90. D(H  18,O  16,C   6,H  14)   -172.2606         0.000000   
     91. D(O  17,O  16,C   6,C   5)   -118.0977         0.000000   
     92. D(H  19,O  17,O  16,H  18)   -172.0731         0.000000   
     93. D(H  19,O  17,O  16,H  13)      4.2752         0.000000   
    -----------------------------------------------------------------

Number of atoms                         .... 20
Number of degrees of freedom            .... 93


         *************************************************************
         *                GEOMETRY OPTIMIZATION CYCLE   1            *
         *************************************************************
---------------------------------
CARTESIAN COORDINATES (ANGSTROEM)
---------------------------------
  C    -0.140613   -0.203239    1.498616
  C    -1.511942   -0.281146    1.642000
  C    -2.338767   -0.105141    0.543016
  C    -1.789114    0.145282   -0.706760
  C    -0.419812    0.219395   -0.860557
  C     0.420550    0.039343    0.242363
  C     1.870693    0.119258    0.068710
  O     2.623548   -0.292750    1.106851
  H     0.511896   -0.341082    2.346203
  H    -1.939575   -0.475671    2.613355
  H    -3.410142   -0.160151    0.658781
  H    -2.434027    0.284518   -1.560584
  H     0.010036    0.423210   -1.829179
  H     2.068220    1.453928   -0.030807
  H     2.227958   -0.136831   -0.928249
  H     3.556322   -0.413136    0.867801
  O     2.301286    2.501536   -0.119050
  O     2.758029    4.273069   -0.591571
  H     2.145068    2.875640    0.757225
  H     2.838977    4.134593   -1.537067

----------------------------
CARTESIAN COORDINATES (A.U.)
----------------------------
  NO LB    ZA    FRAG    MASS        X           Y           Z
   0 C   6.0000    0    12.011   -0.265720   -0.384066    2.831973
   1 C   6.0000    0    12.011   -2.857157   -0.531289    3.102930
   2 C   6.0000    0    12.011   -4.419630   -0.198688    1.026151
   3 C   6.0000    0    12.011   -3.380936    0.274543   -1.335583
   4 C   6.0000    0    12.011   -0.793329    0.414597   -1.626217
   5 C   6.0000    0    12.011    0.794725    0.074348    0.458000
   6 C   6.0000    0    12.011    3.535098    0.225365    0.129842
   7 O   8.0000    0    15.999    4.957787   -0.553218    2.091645
   8 H   1.0000    0     1.008    0.967343   -0.644552    4.433682
   9 H   1.0000    0     1.008   -3.665266   -0.898887    4.938526
  10 H   1.0000    0     1.008   -6.444234   -0.302641    1.244915
  11 H   1.0000    0     1.008   -4.599644    0.537662   -2.949077
  12 H   1.0000    0     1.008    0.018966    0.799750   -3.456648
  13 H   1.0000    0     1.008    3.908370    2.747527   -0.058216
  14 H   1.0000    0     1.008    4.210231   -0.258574   -1.754137
  15 H   1.0000    0     1.008    6.720474   -0.780713    1.639907
  16 O   8.0000    0    15.999    4.348800    4.727219   -0.224973
  17 O   8.0000    0    15.999    5.211920    8.074929   -1.117908
  18 H   1.0000    0     1.008    4.053590    5.434172    1.430949
  19 H   1.0000    0     1.008    5.364889    7.813249   -2.904636

      -----------------------------------------------------------      
     |                   =====================                   |     
     |                           x T B                           |     
     |                   =====================                   |     
     |                         S. Grimme                         |     
     |          Mulliken Center for Theoretical Chemistry        |     
     |                    University of Bonn                     |     
      -----------------------------------------------------------      

   * xtb version 6.7.1 (edcfbbe) compiled by 'albert@albert-system' on 2024-07-22

   xtb is free software: you can redistribute it and/or modify it under
   the terms of the GNU Lesser General Public License as published by
   the Free Software Foundation, either version 3 of the License, or
   (at your option) any later version.
   
   xtb is distributed in the hope that it will be useful,
   but WITHOUT ANY WARRANTY; without even the implied warranty of
   MERCHANTABILITY or FITNESS FOR A PARTICULAR PURPOSE.  See the
   GNU Lesser General Public License for more details.
   
   Cite this work as:
   * C. Bannwarth, E. Caldeweyher, S. Ehlert, A. Hansen, P. Pracht,
     J. Seibert, S. Spicher, S. Grimme, WIREs Comput. Mol. Sci., 2020, 11,
     e01493. DOI: 10.1002/wcms.1493
   
   for GFN2-xTB:
   * C. Bannwarth, S. Ehlert and S. Grimme., J. Chem. Theory Comput., 2019,
     15, 1652-1671. DOI: 10.1021/acs.jctc.8b01176
   for GFN1-xTB:
   * S. Grimme, C. Bannwarth, P. Shushkov, J. Chem. Theory Comput., 2017,
     13, 1989-2009. DOI: 10.1021/acs.jctc.7b00118
   for GFN0-xTB:
   * P. Pracht, E. Caldeweyher, S. Ehlert, S. Grimme, ChemRxiv, 2019, preprint.
     DOI: 10.26434/chemrxiv.8326202.v1
   for GFN-FF:
   * S. Spicher and S. Grimme, Angew. Chem. Int. Ed., 2020, 59, 15665-15673.
     DOI: 10.1002/anie.202004239
   
   for ALPB and GBSA implicit solvation:
   * S. Ehlert, M. Stahn, S. Spicher, S. Grimme, J. Chem. Theory Comput.,
     2021, 17, 4250-4261. DOI: 10.1021/acs.jctc.1c00471
   
   for ddCOSMO and CPCM-X implicit solvation:
   * M. Stahn, S. Ehlert, S. Grimme, J. Phys. Chem. A,
     2023, XX, XXXX-XXXX. DOI: 10.1021/acs.jpca.3c04382
   
   for DFT-D4:
   * E. Caldeweyher, C. Bannwarth and S. Grimme, J. Chem. Phys., 2017,
     147, 034112. DOI: 10.1063/1.4993215
   * E. Caldeweyher, S. Ehlert, A. Hansen, H. Neugebauer, S. Spicher,
     C. Bannwarth and S. Grimme, J. Chem. Phys., 2019, 150, 154122.
     DOI: 10.1063/1.5090222
   * E. Caldeweyher, J.-M. Mewes, S. Ehlert and S. Grimme, Phys. Chem. Chem. Phys.
     2020, 22, 8499-8512. DOI: 10.1039/D0CP00502A
   
   for sTDA-xTB:
   * S. Grimme and C. Bannwarth, J. Chem. Phys., 2016, 145, 054103.
     DOI: 10.1063/1.4959605
   
   in the mass-spec context:
   * V. Asgeirsson, C. Bauer and S. Grimme, Chem. Sci., 2017, 8, 4879.
     DOI: 10.1039/c7sc00601b
   * J. Koopman and S. Grimme, ACS Omega 2019, 4, 12, 15120-15133.
     DOI: 10.1021/acsomega.9b02011
   
   for metadynamics refer to:
   * S. Grimme, J. Chem. Theory Comput., 2019, 155, 2847-2862
     DOI: 10.1021/acs.jctc.9b00143
   
   for SPH calculations refer to:
   * S. Spicher and S. Grimme, J. Chem. Theory Comput., 2021, 17, 1701-1714
     DOI: 10.1021/acs.jctc.0c01306
   
   for ONIOM refer to:
   * C. Plett, A. Katbashev, S. Ehlert, S. Grimme, M. Bursch,
     Phys. Chem. Chem. Phys., 2023, 25, 17860-17868. DOI: 10.1039/D3CP02178E
   
   for DIPRO refer to:
   * J. Kohn, N. Gildemeister, S. Grimme, D. Fazzi, A. Hansen,
     J. Chem. Phys., 2023, just accepted.
   
   for PTB refer to:
   * S. Grimme, M. Mueller, A. Hansen, J. Chem. Phys., 2023, 158, 124111.
     DOI: 10.1063/5.0137838
   
   with help from (in alphabetical order)
   P. Atkinson, C. Bannwarth, F. Bohle, G. Brandenburg, E. Caldeweyher
   M. Checinski, S. Dohm, S. Ehlert, S. Ehrlich, I. Gerasimov, C. Hölzer
   A. Katbashev, J. Kohn, J. Koopman, C. Lavigne, S. Lehtola, F. März, M. Müller,
   F. Musil, H. Neugebauer, J. Pisarek, C. Plett, P. Pracht, F. Pultar,
   J. Seibert, P. Shushkov, S. Spicher, M. Stahn, M. Steiner, T. Strunk,
   J. Stückrath, T. Rose, and J. Unsleber
   
 * started run on 2025/07/05 at 23:08:53.093     
   ID    Z sym.   atoms
    1    6 C      1-7
    2    8 O      8, 17, 18
    3    1 H      9-16, 19, 20

           -------------------------------------------------
          |                Calculation Setup                |
           -------------------------------------------------

          program call               : /home/madsr2d2/orca_6_1_0/otool_xtb BnOH_H2O2_ts_opt_XTB.xyz --grad -c 0 -u 0 -P 12 --namespace BnOH_H2O2_ts_opt --input BnOH_H2O2_ts_opt_XTB.input.tmp --alpb WATER --acc 0.200000
          calculation namespace      : BnOH_H2O2_ts_opt
          coordinate file            : BnOH_H2O2_ts_opt_XTB.xyz
          omp threads                :                    12


molecular fragmentation (1/2 indicates fragments):
11111111111111111212
# atoms in fragment 1/2:    18     2
 fragment masses (1/2) :      125.15       17.01
CMA distance (Bohr)    :   9.049
constraining FC (au)   :  0.0500

           -------------------------------------------------
          |                 G F N 2 - x T B                 |
           -------------------------------------------------

        Reference                      10.1021/acs.jctc.8b01176
      * Hamiltonian:
        H0-scaling (s, p, d)           1.850000    2.230000    2.230000
        zeta-weighting                 0.500000
      * Dispersion:
        s8                             2.700000
        a1                             0.520000
        a2                             5.000000
        s9                             5.000000
      * Repulsion:
        kExp                           1.500000    1.000000
        rExp                           1.000000
      * Coulomb:
        alpha                          2.000000
        third order                    shell-resolved
        anisotropic                    true
        a3                             3.000000
        a5                             4.000000
        cn-shift                       1.200000
        cn-exp                         4.000000
        max-rad                        5.000000

      * Solvation model:               ALPB
        Solvent                        WATER
        Parameter file                 internal GFN2-xTB/ALPB
        Dielectric constant                8.0200E+01
        Reference state                gsolv [1 M gas/solution]
        Free energy shift                  1.0808E-03 Eh       6.7819E-01 kcal/mol
        Temperature                        2.9815E+02 K
        Density                            1.0000E+00 kg/L
        Solvent mass                       1.8000E+01 g/mol
        Interaction kernel             P16
        Born radius scaling (c1)           1.4744E+00
        Born radii integrator          GBOBC
        Born offset                        0.0000E+00 a0       0.0000E+00 AA
        H-bond correction              true
        Ion screening                  false
        Surface tension                    1.0000E-05 Eh       1.5569E+01 dyn/cm
        Grid points                               230 per atom

          ...................................................
          :                      SETUP                      :
          :.................................................:
          :  # basis functions                  50          :
          :  # atomic orbitals                  50          :
          :  # shells                           30          :
          :  # electrons                        56          :
          :  max. iterations                   250          :
          :  Hamiltonian                  GFN2-xTB          :
          :  restarted?                      false          :
          :  GBSA solvation                   true          :
          :  PC potential                    false          :
          :  electronic temp.          300.0000000     K    :
          :  accuracy                    0.2000000          :
          :  -> integral cutoff          0.3198970E+02      :
          :  -> integral neglect         0.2000000E-08      :
          :  -> SCF convergence          0.2000000E-06 Eh   :
          :  -> wf. convergence          0.2000000E-04 e    :
          :  Broyden damping             0.4000000          :
          :  net charge                          0          :
          :  unpaired electrons                  0          :
          ...................................................

 iter      E             dE          RMSdq      gap      omega  full diag
   1    -32.4063706 -0.324064E+02  0.549E+00    2.71       0.0  T
   2    -32.4687412 -0.623706E-01  0.320E+00    1.70       1.0  T
   3    -32.4921843 -0.234431E-01  0.240E+00    2.19       1.0  T
   4    -32.5298745 -0.376903E-01  0.752E-01    1.67       1.0  T
   5    -32.5393784 -0.950391E-02  0.130E-01    1.72       1.0  T
   6    -32.5392319  0.146534E-03  0.129E-01    1.74       1.0  T
   7    -32.5394632 -0.231252E-03  0.334E-02    1.72       1.0  T
   8    -32.5394685 -0.536501E-05  0.137E-02    1.72       1.6  T
   9    -32.5394684  0.840038E-07  0.124E-02    1.73       1.8  T
  10    -32.5394702 -0.179829E-05  0.483E-03    1.73       4.6  T
  11    -32.5394704 -0.186423E-06  0.226E-03    1.73       9.9  T
  12    -32.5394705 -0.704865E-07  0.828E-04    1.73      27.0  T
  13    -32.5394705 -0.952726E-08  0.231E-04    1.73      96.8  T
  14    -32.5394705 -0.523045E-09  0.643E-05    1.73     347.7  T
  15    -32.5394705  0.285496E-10  0.545E-05    1.73     410.0  T

   *** convergence criteria satisfied after 15 iterations ***

         #    Occupation            Energy/Eh            Energy/eV
      -------------------------------------------------------------
         1        2.0000           -0.7290920             -19.8396
       ...           ...                  ...                  ...
        22        2.0000           -0.4617370             -12.5645
        23        2.0000           -0.4351490             -11.8410
        24        2.0000           -0.4263389             -11.6013
        25        2.0000           -0.4218792             -11.4799
        26        2.0000           -0.4121568             -11.2154
        27        2.0000           -0.3925399             -10.6816
        28        2.0000           -0.3729920             -10.1496 (HOMO)
        29                         -0.3095294              -8.4227 (LUMO)
        30                         -0.2290981              -6.2341
        31                         -0.2173236              -5.9137
        32                         -0.0972165              -2.6454
        33                          0.0563295               1.5328
       ...                                ...                  ...
        50                          0.6570017              17.8779
      -------------------------------------------------------------
                  HL-Gap            0.0634627 Eh            1.7269 eV
             Fermi-level           -0.3412607 Eh           -9.2862 eV

 SCC (total)                   0 d,  0 h,  0 min,  0.014 sec
 SCC setup                      ...        0 min,  0.000 sec (  2.175%)
 Dispersion                     ...        0 min,  0.000 sec (  1.115%)
 classical contributions        ...        0 min,  0.000 sec (  0.395%)
 integral evaluation            ...        0 min,  0.000 sec (  3.422%)
 iterations                     ...        0 min,  0.012 sec ( 85.079%)
 molecular gradient             ...        0 min,  0.001 sec (  7.184%)
 printout                       ...        0 min,  0.000 sec (  0.527%)

         :::::::::::::::::::::::::::::::::::::::::::::::::::::
         ::                     SUMMARY                     ::
         :::::::::::::::::::::::::::::::::::::::::::::::::::::
         :: total energy             -32.138405828805 Eh    ::
         :: total w/o Gsasa/hb       -32.122164684350 Eh    ::
         :: gradient norm              0.027227346729 Eh/a0 ::
         :: HOMO-LUMO gap              1.726907425910 eV    ::
         ::.................................................::
         :: SCC energy               -32.539393614461 Eh    ::
         :: -> isotropic ES            0.140637630529 Eh    ::
         :: -> anisotropic ES         -0.006927571484 Eh    ::
         :: -> anisotropic XC          0.009781926721 Eh    ::
         :: -> dispersion             -0.013819256907 Eh    ::
         :: -> Gsolv                  -0.051653419782 Eh    ::
         ::    -> Gelec               -0.035412275328 Eh    ::
         ::    -> Gsasa                0.002070753286 Eh    ::
         ::    -> Ghb                 -0.019392657439 Eh    ::
         ::    -> Gshift               0.001080759698 Eh    ::
         :: repulsion energy           0.400987785657 Eh    ::
         :: add. restraining           0.000000000000 Eh    ::
         :: total charge               0.000000000000 e     ::
         :::::::::::::::::::::::::::::::::::::::::::::::::::::


Property printout bound to 'properties.out'

           -------------------------------------------------
          | TOTAL ENERGY              -32.138405828805 Eh   |
          | GRADIENT NORM               0.027227346729 Eh/α |
          | HOMO-LUMO GAP               1.726907425910 eV   |
           -------------------------------------------------

------------------------------------------------------------------------
 * finished run on 2025/07/05 at 23:08:53.116     
------------------------------------------------------------------------
 total:
 * wall-time:     0 d,  0 h,  0 min,  0.022 sec
 *  cpu-time:     0 d,  0 h,  0 min,  0.044 sec
 * ratio c/w:     1.990 speedup
 SCF:
 * wall-time:     0 d,  0 h,  0 min,  0.015 sec
 *  cpu-time:     0 d,  0 h,  0 min,  0.035 sec
 * ratio c/w:     2.381 speedup


-------------------------   --------------------
FINAL SINGLE POINT ENERGY       -32.138405828800
-------------------------   --------------------


-------------
DIPOLE MOMENT
-------------
                                X             Y             Z
Total Dipole Moment    :     -0.64600      -3.39600       0.25700
                        -----------------------------------------
Magnitude (a.u.)       :      3.46644
Magnitude (Debye)      :      8.81098


------------------
CARTESIAN GRADIENT
------------------

   1   C   :    0.000017534    0.000002511    0.000008809
   2   C   :   -0.000001571    0.000000739   -0.000001917
   3   C   :    0.000004580    0.000011917    0.000000093
   4   C   :   -0.000022477    0.000004592    0.000008738
   5   C   :    0.000032725    0.000012736   -0.000003143
   6   C   :   -0.000050912   -0.000042954   -0.000009793
   7   C   :    0.000009592    0.000054673    0.000018462
   8   O   :    0.000008145    0.000049910    0.000023514
   9   H   :   -0.000003635   -0.000003583   -0.000000662
  10   H   :    0.000000165    0.000005136    0.000002679
  11   H   :   -0.000002734    0.000011452    0.000004928
  12   H   :   -0.000001585    0.000013776    0.000002502
  13   H   :   -0.000014712    0.000007418   -0.000001729
  14   H   :    0.004132328    0.018687636   -0.001712078
  15   H   :   -0.000015066   -0.000047246    0.000001004
  16   H   :   -0.000006859   -0.000050018   -0.000024975
  17   O   :   -0.004109357   -0.018771005    0.001683050
  18   O   :   -0.000004650    0.000052391   -0.000001421
  19   H   :    0.000019267    0.000009799   -0.000001596
  20   H   :    0.000009221   -0.000009881    0.000003534

Difference to translation invariance:
           :    0.0000000000    0.0000000000    0.0000000000

Difference to rotation invariance:
           :    0.0001003780    0.0001979025   -0.0007634013

Norm of the Cartesian gradient     ...    0.0272273467
RMS gradient                       ...    0.0035150353
MAX gradient                       ...    0.0187710045
      -----------------------------------------------------------      
     |                   =====================                   |     
     |                           x T B                           |     
     |                   =====================                   |     
     |                         S. Grimme                         |     
     |          Mulliken Center for Theoretical Chemistry        |     
     |                    University of Bonn                     |     
      -----------------------------------------------------------      

   * xtb version 6.7.1 (edcfbbe) compiled by 'albert@albert-system' on 2024-07-22

   xtb is free software: you can redistribute it and/or modify it under
   the terms of the GNU Lesser General Public License as published by
   the Free Software Foundation, either version 3 of the License, or
   (at your option) any later version.
   
   xtb is distributed in the hope that it will be useful,
   but WITHOUT ANY WARRANTY; without even the implied warranty of
   MERCHANTABILITY or FITNESS FOR A PARTICULAR PURPOSE.  See the
   GNU Lesser General Public License for more details.
   
   Cite this work as:
   * C. Bannwarth, E. Caldeweyher, S. Ehlert, A. Hansen, P. Pracht,
     J. Seibert, S. Spicher, S. Grimme, WIREs Comput. Mol. Sci., 2020, 11,
     e01493. DOI: 10.1002/wcms.1493
   
   for GFN2-xTB:
   * C. Bannwarth, S. Ehlert and S. Grimme., J. Chem. Theory Comput., 2019,
     15, 1652-1671. DOI: 10.1021/acs.jctc.8b01176
   for GFN1-xTB:
   * S. Grimme, C. Bannwarth, P. Shushkov, J. Chem. Theory Comput., 2017,
     13, 1989-2009. DOI: 10.1021/acs.jctc.7b00118
   for GFN0-xTB:
   * P. Pracht, E. Caldeweyher, S. Ehlert, S. Grimme, ChemRxiv, 2019, preprint.
     DOI: 10.26434/chemrxiv.8326202.v1
   for GFN-FF:
   * S. Spicher and S. Grimme, Angew. Chem. Int. Ed., 2020, 59, 15665-15673.
     DOI: 10.1002/anie.202004239
   
   for ALPB and GBSA implicit solvation:
   * S. Ehlert, M. Stahn, S. Spicher, S. Grimme, J. Chem. Theory Comput.,
     2021, 17, 4250-4261. DOI: 10.1021/acs.jctc.1c00471
   
   for ddCOSMO and CPCM-X implicit solvation:
   * M. Stahn, S. Ehlert, S. Grimme, J. Phys. Chem. A,
     2023, XX, XXXX-XXXX. DOI: 10.1021/acs.jpca.3c04382
   
   for DFT-D4:
   * E. Caldeweyher, C. Bannwarth and S. Grimme, J. Chem. Phys., 2017,
     147, 034112. DOI: 10.1063/1.4993215
   * E. Caldeweyher, S. Ehlert, A. Hansen, H. Neugebauer, S. Spicher,
     C. Bannwarth and S. Grimme, J. Chem. Phys., 2019, 150, 154122.
     DOI: 10.1063/1.5090222
   * E. Caldeweyher, J.-M. Mewes, S. Ehlert and S. Grimme, Phys. Chem. Chem. Phys.
     2020, 22, 8499-8512. DOI: 10.1039/D0CP00502A
   
   for sTDA-xTB:
   * S. Grimme and C. Bannwarth, J. Chem. Phys., 2016, 145, 054103.
     DOI: 10.1063/1.4959605
   
   in the mass-spec context:
   * V. Asgeirsson, C. Bauer and S. Grimme, Chem. Sci., 2017, 8, 4879.
     DOI: 10.1039/c7sc00601b
   * J. Koopman and S. Grimme, ACS Omega 2019, 4, 12, 15120-15133.
     DOI: 10.1021/acsomega.9b02011
   
   for metadynamics refer to:
   * S. Grimme, J. Chem. Theory Comput., 2019, 155, 2847-2862
     DOI: 10.1021/acs.jctc.9b00143
   
   for SPH calculations refer to:
   * S. Spicher and S. Grimme, J. Chem. Theory Comput., 2021, 17, 1701-1714
     DOI: 10.1021/acs.jctc.0c01306
   
   for ONIOM refer to:
   * C. Plett, A. Katbashev, S. Ehlert, S. Grimme, M. Bursch,
     Phys. Chem. Chem. Phys., 2023, 25, 17860-17868. DOI: 10.1039/D3CP02178E
   
   for DIPRO refer to:
   * J. Kohn, N. Gildemeister, S. Grimme, D. Fazzi, A. Hansen,
     J. Chem. Phys., 2023, just accepted.
   
   for PTB refer to:
   * S. Grimme, M. Mueller, A. Hansen, J. Chem. Phys., 2023, 158, 124111.
     DOI: 10.1063/5.0137838
   
   with help from (in alphabetical order)
   P. Atkinson, C. Bannwarth, F. Bohle, G. Brandenburg, E. Caldeweyher
   M. Checinski, S. Dohm, S. Ehlert, S. Ehrlich, I. Gerasimov, C. Hölzer
   A. Katbashev, J. Kohn, J. Koopman, C. Lavigne, S. Lehtola, F. März, M. Müller,
   F. Musil, H. Neugebauer, J. Pisarek, C. Plett, P. Pracht, F. Pultar,
   J. Seibert, P. Shushkov, S. Spicher, M. Stahn, M. Steiner, T. Strunk,
   J. Stückrath, T. Rose, and J. Unsleber
   
 * started run on 2025/07/05 at 23:08:53.121     
   ID    Z sym.   atoms
    1    6 C      1-7
    2    8 O      8, 17, 18
    3    1 H      9-16, 19, 20

           -------------------------------------------------
          |                Calculation Setup                |
           -------------------------------------------------

          program call               : /home/madsr2d2/orca_6_1_0/otool_xtb BnOH_H2O2_ts_opt_XTB.xyz --hess -c 0 -u 0 -P 12 --namespace BnOH_H2O2_ts_opt --input BnOH_H2O2_ts_opt_XTB.input.tmp --alpb WATER --acc 0.200000
          calculation namespace      : BnOH_H2O2_ts_opt
          coordinate file            : BnOH_H2O2_ts_opt_XTB.xyz
          omp threads                :                    12


molecular fragmentation (1/2 indicates fragments):
11111111111111111212
# atoms in fragment 1/2:    18     2
 fragment masses (1/2) :      125.15       17.01
CMA distance (Bohr)    :   9.049
constraining FC (au)   :  0.0500

           -------------------------------------------------
          |                 G F N 2 - x T B                 |
           -------------------------------------------------

        Reference                      10.1021/acs.jctc.8b01176
      * Hamiltonian:
        H0-scaling (s, p, d)           1.850000    2.230000    2.230000
        zeta-weighting                 0.500000
      * Dispersion:
        s8                             2.700000
        a1                             0.520000
        a2                             5.000000
        s9                             5.000000
      * Repulsion:
        kExp                           1.500000    1.000000
        rExp                           1.000000
      * Coulomb:
        alpha                          2.000000
        third order                    shell-resolved
        anisotropic                    true
        a3                             3.000000
        a5                             4.000000
        cn-shift                       1.200000
        cn-exp                         4.000000
        max-rad                        5.000000

      * Solvation model:               ALPB
        Solvent                        WATER
        Parameter file                 internal GFN2-xTB/ALPB
        Dielectric constant                8.0200E+01
        Reference state                gsolv [1 M gas/solution]
        Free energy shift                  1.0808E-03 Eh       6.7819E-01 kcal/mol
        Temperature                        2.9815E+02 K
        Density                            1.0000E+00 kg/L
        Solvent mass                       1.8000E+01 g/mol
        Interaction kernel             P16
        Born radius scaling (c1)           1.4744E+00
        Born radii integrator          GBOBC
        Born offset                        0.0000E+00 a0       0.0000E+00 AA
        H-bond correction              true
        Ion screening                  false
        Surface tension                    1.0000E-05 Eh       1.5569E+01 dyn/cm
        Grid points                               230 per atom
q/qsh data taken from xtbrestart
CAMM data taken from xtbrestart

          ...................................................
          :                      SETUP                      :
          :.................................................:
          :  # basis functions                  50          :
          :  # atomic orbitals                  50          :
          :  # shells                           30          :
          :  # electrons                        56          :
          :  max. iterations                   250          :
          :  Hamiltonian                  GFN2-xTB          :
          :  restarted?                       true          :
          :  GBSA solvation                   true          :
          :  PC potential                    false          :
          :  electronic temp.          300.0000000     K    :
          :  accuracy                    0.2000000          :
          :  -> integral cutoff          0.3198970E+02      :
          :  -> integral neglect         0.2000000E-08      :
          :  -> SCF convergence          0.2000000E-06 Eh   :
          :  -> wf. convergence          0.2000000E-04 e    :
          :  Broyden damping             0.4000000          :
          :  net charge                          0          :
          :  unpaired electrons                  0          :
          ...................................................

 iter      E             dE          RMSdq      gap      omega  full diag
   1    -32.5394705 -0.325395E+02  0.206E-05    1.73       0.0  T
   2    -32.5394705  0.384404E-11  0.223E-05    1.73    1001.9  T
   3    -32.5394705 -0.898837E-11  0.558E-06    1.73    4010.5  T

   *** convergence criteria satisfied after 3 iterations ***

         #    Occupation            Energy/Eh            Energy/eV
      -------------------------------------------------------------
         1        2.0000           -0.7290923             -19.8396
       ...           ...                  ...                  ...
        22        2.0000           -0.4617370             -12.5645
        23        2.0000           -0.4351491             -11.8410
        24        2.0000           -0.4263390             -11.6013
        25        2.0000           -0.4218793             -11.4799
        26        2.0000           -0.4121570             -11.2154
        27        2.0000           -0.3925391             -10.6815
        28        2.0000           -0.3729917             -10.1496 (HOMO)
        29                         -0.3095293              -8.4227 (LUMO)
        30                         -0.2290983              -6.2341
        31                         -0.2173237              -5.9137
        32                         -0.0972167              -2.6454
        33                          0.0563293               1.5328
       ...                                ...                  ...
        50                          0.6570016              17.8779
      -------------------------------------------------------------
                  HL-Gap            0.0634624 Eh            1.7269 eV
             Fermi-level           -0.3412605 Eh           -9.2862 eV

 SCC (total)                   0 d,  0 h,  0 min,  0.007 sec
 SCC setup                      ...        0 min,  0.000 sec (  3.825%)
 Dispersion                     ...        0 min,  0.000 sec (  1.876%)
 classical contributions        ...        0 min,  0.000 sec (  0.740%)
 integral evaluation            ...        0 min,  0.000 sec (  6.778%)
 iterations                     ...        0 min,  0.004 sec ( 64.405%)
 molecular gradient             ...        0 min,  0.001 sec ( 20.346%)
 printout                       ...        0 min,  0.000 sec (  1.781%)

         :::::::::::::::::::::::::::::::::::::::::::::::::::::
         ::                     SUMMARY                     ::
         :::::::::::::::::::::::::::::::::::::::::::::::::::::
         :: total energy             -32.138405828849 Eh    ::
         :: total w/o Gsasa/hb       -32.122164687549 Eh    ::
         :: gradient norm              0.027229272442 Eh/a0 ::
         :: HOMO-LUMO gap              1.726900513701 eV    ::
         ::.................................................::
         :: SCC energy               -32.539393614506 Eh    ::
         :: -> isotropic ES            0.140634160377 Eh    ::
         :: -> anisotropic ES         -0.006927432908 Eh    ::
         :: -> anisotropic XC          0.009781887315 Eh    ::
         :: -> dispersion             -0.013819261056 Eh    ::
         :: -> Gsolv                  -0.051653579199 Eh    ::
         ::    -> Gelec               -0.035412437899 Eh    ::
         ::    -> Gsasa                0.002070753286 Eh    ::
         ::    -> Ghb                 -0.019392654284 Eh    ::
         ::    -> Gshift               0.001080759698 Eh    ::
         :: repulsion energy           0.400987785657 Eh    ::
         :: add. restraining           0.000000000000 Eh    ::
         :: total charge               0.000000000000 e     ::
         :::::::::::::::::::::::::::::::::::::::::::::::::::::

           ------------------------------------------------- 
          |                Numerical Hessian                |
           ------------------------------------------------- 
step length          :   0.00500
SCC accuracy         :   0.30000
Hessian scale factor :   1.00000
frozen atoms in %    :   0.00000    0
RMS gradient         :   0.02723 !! INCOMPLETELY OPTIMIZED GEOMETRY !!
estimated CPU  time      0.11 min
estimated wall time      0.01 min

writing file <hessian>.

 projected vibrational frequencies (cm⁻¹)
eigval :       -0.00    -0.00    -0.00    -0.00     0.00     0.00
eigval :     -293.97   -21.14     8.44    89.67   123.55   156.25
eigval :      177.38   206.34   248.85   294.92   363.95   409.16
eigval :      421.01   445.38   500.03   579.31   588.07   653.65
eigval :      707.52   717.26   772.77   807.89   842.63   867.48
eigval :      903.02   926.95   931.47   980.66   988.95  1077.34
eigval :     1113.44  1124.39  1163.11  1178.87  1189.40  1231.16
eigval :     1278.38  1300.16  1327.52  1349.87  1434.08  1454.83
eigval :     1571.62  1583.59  1935.48  2974.09  3084.87  3087.76
eigval :     3094.26  3101.91  3108.57  3425.05  3538.66  3666.34

Property printout bound to 'properties.out'
Molecule has no symmetry elements
It seems to be the C1 point group
imag cut-off (cm-1) :    5.00
 found            2  significant imaginary frequencies
 writing imag mode distorted coords to xtbhess.xyz
 for further optimization.

           -------------------------------------------------
          | TOTAL ENERGY              -32.138405824334 Eh   |
          | TOTAL ENTHALPY            -31.978398148687 Eh   |
          | TOTAL FREE ENERGY         -32.026666599691 Eh   |
          | GRADIENT NORM               0.027229681528 Eh/α |
          | HOMO-LUMO GAP               1.726899164993 eV   |
           -------------------------------------------------
########################################################################
[WARNING] Runtime exception occurred
-1- hessian_numhess: Hessian on incompletely optimized geometry!
########################################################################

------------------------------------------------------------------------
 * finished run on 2025/07/05 at 23:08:53.257     
------------------------------------------------------------------------
 total:
 * wall-time:     0 d,  0 h,  0 min,  0.136 sec
 *  cpu-time:     0 d,  0 h,  0 min,  1.136 sec
 * ratio c/w:     8.338 speedup
 SCF:
 * wall-time:     0 d,  0 h,  0 min,  0.007 sec
 *  cpu-time:     0 d,  0 h,  0 min,  0.017 sec
 * ratio c/w:     2.613 speedup
 analytical hessian:
 * wall-time:     0 d,  0 h,  0 min,  0.121 sec
 *  cpu-time:     0 d,  0 h,  0 min,  1.107 sec
 * ratio c/w:     9.180 speedup


-------------------------   --------------------
FINAL SINGLE POINT ENERGY       -32.138405828800
-------------------------   --------------------


-------------
DIPOLE MOMENT
-------------
                                X             Y             Z
Total Dipole Moment    :     -0.64600      -3.39600       0.25700
                        -----------------------------------------
Magnitude (a.u.)       :      3.46644
Magnitude (Debye)      :      8.81098


-----------------------
VIBRATIONAL FREQUENCIES
-----------------------

Scaling factor for frequencies =  1.000000000  (already applied!)

     0:       0.00 cm**-1
     1:       0.00 cm**-1
     2:       0.00 cm**-1
     3:       0.00 cm**-1
     4:       0.00 cm**-1
     5:       0.00 cm**-1
     6:    -293.98 cm**-1  ***imaginary mode***
     7:     -21.14 cm**-1  ***imaginary mode***
     8:       8.44 cm**-1
     9:      89.67 cm**-1
    10:     123.55 cm**-1
    11:     156.25 cm**-1
    12:     177.38 cm**-1
    13:     206.34 cm**-1
    14:     248.85 cm**-1
    15:     294.92 cm**-1
    16:     363.95 cm**-1
    17:     409.16 cm**-1
    18:     421.00 cm**-1
    19:     445.37 cm**-1
    20:     500.02 cm**-1
    21:     579.30 cm**-1
    22:     588.06 cm**-1
    23:     653.64 cm**-1
    24:     707.51 cm**-1
    25:     717.25 cm**-1
    26:     772.76 cm**-1
    27:     807.87 cm**-1
    28:     842.61 cm**-1
    29:     867.46 cm**-1
    30:     903.00 cm**-1
    31:     926.93 cm**-1
    32:     931.44 cm**-1
    33:     980.65 cm**-1
    34:     988.93 cm**-1
    35:    1077.32 cm**-1
    36:    1113.41 cm**-1
    37:    1124.36 cm**-1
    38:    1163.09 cm**-1
    39:    1178.83 cm**-1
    40:    1189.37 cm**-1
    41:    1231.14 cm**-1
    42:    1278.35 cm**-1
    43:    1300.13 cm**-1
    44:    1327.50 cm**-1
    45:    1349.85 cm**-1
    46:    1434.05 cm**-1
    47:    1454.81 cm**-1
    48:    1571.60 cm**-1
    49:    1583.57 cm**-1
    50:    1935.43 cm**-1
    51:    2974.01 cm**-1
    52:    3084.79 cm**-1
    53:    3087.67 cm**-1
    54:    3094.17 cm**-1
    55:    3101.83 cm**-1
    56:    3108.49 cm**-1
    57:    3424.95 cm**-1
    58:    3538.56 cm**-1
    59:    3666.25 cm**-1


------------
NORMAL MODES
------------

These modes are the Cartesian displacements weighted by the diagonal matrix
M(i,i)=1/sqrt(m[i]) where m[i] is the mass of the displaced atom
Thus, these vectors are normalized but *not* orthogonal

                  0          1          2          3          4          5    
      0       0.000000   0.000000   0.000000   0.000000   0.000000   0.000000
      1       0.000000   0.000000   0.000000   0.000000   0.000000   0.000000
      2       0.000000   0.000000   0.000000   0.000000   0.000000   0.000000
      3       0.000000   0.000000   0.000000   0.000000   0.000000   0.000000
      4       0.000000   0.000000   0.000000   0.000000   0.000000   0.000000
      5       0.000000   0.000000   0.000000   0.000000   0.000000   0.000000
      6       0.000000   0.000000   0.000000   0.000000   0.000000   0.000000
      7       0.000000   0.000000   0.000000   0.000000   0.000000   0.000000
      8       0.000000   0.000000   0.000000   0.000000   0.000000   0.000000
      9       0.000000   0.000000   0.000000   0.000000   0.000000   0.000000
     10       0.000000   0.000000   0.000000   0.000000   0.000000   0.000000
     11       0.000000   0.000000   0.000000   0.000000   0.000000   0.000000
     12       0.000000   0.000000   0.000000   0.000000   0.000000   0.000000
     13       0.000000   0.000000   0.000000   0.000000   0.000000   0.000000
     14       0.000000   0.000000   0.000000   0.000000   0.000000   0.000000
     15       0.000000   0.000000   0.000000   0.000000   0.000000   0.000000
     16       0.000000   0.000000   0.000000   0.000000   0.000000   0.000000
     17       0.000000   0.000000   0.000000   0.000000   0.000000   0.000000
     18       0.000000   0.000000   0.000000   0.000000   0.000000   0.000000
     19       0.000000   0.000000   0.000000   0.000000   0.000000   0.000000
     20       0.000000   0.000000   0.000000   0.000000   0.000000   0.000000
     21       0.000000   0.000000   0.000000   0.000000   0.000000   0.000000
     22       0.000000   0.000000   0.000000   0.000000   0.000000   0.000000
     23       0.000000   0.000000   0.000000   0.000000   0.000000   0.000000
     24       0.000000   0.000000   0.000000   0.000000   0.000000   0.000000
     25       0.000000   0.000000   0.000000   0.000000   0.000000   0.000000
     26       0.000000   0.000000   0.000000   0.000000   0.000000   0.000000
     27       0.000000   0.000000   0.000000   0.000000   0.000000   0.000000
     28       0.000000   0.000000   0.000000   0.000000   0.000000   0.000000
     29       0.000000   0.000000   0.000000   0.000000   0.000000   0.000000
     30       0.000000   0.000000   0.000000   0.000000   0.000000   0.000000
     31       0.000000   0.000000   0.000000   0.000000   0.000000   0.000000
     32       0.000000   0.000000   0.000000   0.000000   0.000000   0.000000
     33       0.000000   0.000000   0.000000   0.000000   0.000000   0.000000
     34       0.000000   0.000000   0.000000   0.000000   0.000000   0.000000
     35       0.000000   0.000000   0.000000   0.000000   0.000000   0.000000
     36       0.000000   0.000000   0.000000   0.000000   0.000000   0.000000
     37       0.000000   0.000000   0.000000   0.000000   0.000000   0.000000
     38       0.000000   0.000000   0.000000   0.000000   0.000000   0.000000
     39       0.000000   0.000000   0.000000   0.000000   0.000000   0.000000
     40       0.000000   0.000000   0.000000   0.000000   0.000000   0.000000
     41       0.000000   0.000000   0.000000   0.000000   0.000000   0.000000
     42       0.000000   0.000000   0.000000   0.000000   0.000000   0.000000
     43       0.000000   0.000000   0.000000   0.000000   0.000000   0.000000
     44       0.000000   0.000000   0.000000   0.000000   0.000000   0.000000
     45       0.000000   0.000000   0.000000   0.000000   0.000000   0.000000
     46       0.000000   0.000000   0.000000   0.000000   0.000000   0.000000
     47       0.000000   0.000000   0.000000   0.000000   0.000000   0.000000
     48       0.000000   0.000000   0.000000   0.000000   0.000000   0.000000
     49       0.000000   0.000000   0.000000   0.000000   0.000000   0.000000
     50       0.000000   0.000000   0.000000   0.000000   0.000000   0.000000
     51       0.000000   0.000000   0.000000   0.000000   0.000000   0.000000
     52       0.000000   0.000000   0.000000   0.000000   0.000000   0.000000
     53       0.000000   0.000000   0.000000   0.000000   0.000000   0.000000
     54       0.000000   0.000000   0.000000   0.000000   0.000000   0.000000
     55       0.000000   0.000000   0.000000   0.000000   0.000000   0.000000
     56       0.000000   0.000000   0.000000   0.000000   0.000000   0.000000
     57       0.000000   0.000000   0.000000   0.000000   0.000000   0.000000
     58       0.000000   0.000000   0.000000   0.000000   0.000000   0.000000
     59       0.000000   0.000000   0.000000   0.000000   0.000000   0.000000
                  6          7          8          9         10         11    
      0       0.019461  -0.045959  -0.030264  -0.007892   0.016093  -0.009339
      1       0.021380   0.033187  -0.198778   0.014962  -0.128054   0.056534
      2      -0.035058   0.004707   0.000094   0.001426  -0.030077   0.004960
      3       0.011112  -0.035554  -0.032566  -0.008522   0.013340  -0.004840
      4      -0.008876  -0.106154  -0.245299   0.014571  -0.034992  -0.026726
      5      -0.016428   0.028334  -0.043183  -0.004528  -0.002488   0.001917
      6      -0.003684  -0.070596  -0.012050  -0.003567   0.001212  -0.011565
      7      -0.005703  -0.230459  -0.060192   0.002289   0.095192  -0.081890
      8       0.004657   0.034848  -0.028534  -0.010216   0.028376  -0.001286
      9      -0.014029  -0.116229   0.010349   0.002154  -0.006712  -0.021715
     10      -0.007737  -0.208154   0.173312  -0.008412   0.082376  -0.004789
     11       0.007322   0.019514   0.027735  -0.009762   0.021875   0.009616
     12      -0.008475  -0.126144   0.012470   0.002819  -0.004273  -0.024671
     13       0.018074  -0.066786   0.213333  -0.006134  -0.029731   0.070839
     14       0.010326  -0.003273   0.068791  -0.003116  -0.009312   0.011708
     15      -0.012708  -0.091018  -0.008027  -0.002036   0.005992  -0.015647
     16       0.071264   0.048702   0.026492   0.004263  -0.099114   0.062596
     17      -0.009345  -0.011975   0.054250   0.002184  -0.028349   0.002861
     18       0.085298  -0.098235  -0.003984  -0.001301   0.007283  -0.006961
     19       0.330718   0.151733   0.051616   0.005818  -0.059484  -0.039116
     20      -0.055776  -0.042727   0.089623   0.006176  -0.023008  -0.005013
     21       0.007154  -0.054604  -0.020019  -0.000483   0.005172  -0.057568
     22      -0.003750   0.175331   0.012825  -0.019605   0.239643   0.023634
     23       0.029042  -0.060688   0.085482  -0.003368   0.097899   0.057161
     24       0.025220  -0.017736  -0.045630  -0.011900   0.024525  -0.006185
     25       0.031069   0.124954  -0.340462   0.023325  -0.202178   0.080077
     26      -0.037585  -0.002119  -0.011189   0.005893  -0.048864   0.006237
     27       0.034247   0.000390  -0.049772  -0.012744   0.021962   0.005606
     28      -0.029619  -0.122548  -0.428447   0.022982  -0.047439  -0.058988
     29      -0.009672   0.040842  -0.087473  -0.004695  -0.001136   0.000073
     30      -0.004159  -0.062745  -0.013640  -0.003979  -0.001172  -0.007981
     31      -0.003652  -0.347768  -0.097357   0.000855   0.197697  -0.171289
     32       0.015447   0.051499  -0.061098  -0.014720   0.054979  -0.010428
     33      -0.012365  -0.143581   0.026107   0.006065  -0.015736  -0.027705
     34      -0.024647  -0.307265   0.322985  -0.018401   0.165114  -0.016576
     35       0.002041   0.024091   0.040196  -0.014379   0.042174   0.012167
     36      -0.025123  -0.162146   0.031814   0.007136  -0.010451  -0.034886
     37       0.020297  -0.058646   0.396703  -0.015643  -0.029205   0.113304
     38       0.001527  -0.017708   0.115885  -0.003244  -0.012101   0.016073
     39       0.214425  -0.202504  -0.011666  -0.015905  -0.078426   0.115299
     40      -0.456179   0.147907   0.053188   0.008846  -0.088349  -0.068995
     41      -0.141097  -0.043173   0.146418   0.036111  -0.311258  -0.194234
     42      -0.079755  -0.105645   0.016103  -0.002172   0.054833  -0.023647
     43      -0.309994   0.163999   0.096959   0.024733  -0.257616  -0.201659
     44       0.030322  -0.048981   0.085046   0.001181   0.044631   0.030849
     45      -0.013868  -0.054835  -0.018958  -0.006629   0.021662  -0.079322
     46      -0.003968   0.225734   0.008736  -0.046106   0.253874  -0.177982
     47      -0.000806  -0.085689   0.091040  -0.015323   0.157660   0.070957
     48       0.070487   0.125956   0.025906   0.056458  -0.065219   0.217342
     49       0.225852   0.094852   0.036294  -0.004209  -0.082567  -0.090958
     50      -0.068049   0.004885  -0.010983   0.031235  -0.201158  -0.145982
     51      -0.133988   0.387023   0.040796  -0.011197   0.075307  -0.152631
     52      -0.453393   0.014553  -0.021809  -0.003959  -0.034425   0.077123
     53       0.106851   0.036016  -0.206405  -0.014226   0.148611   0.068643
     54      -0.104823   0.282628   0.117448   0.417042  -0.174013   0.625226
     55      -0.205005   0.086050   0.138916  -0.053691  -0.162181  -0.210502
     56       0.099280   0.037753  -0.037692   0.117821  -0.186942  -0.022289
     57      -0.056672   0.146445  -0.029286  -0.869051  -0.477848   0.449081
     58      -0.341335   0.071551  -0.113803   0.167944   0.294584   0.110881
     59       0.087399   0.006890  -0.198612  -0.112610   0.053176   0.115773
                 12         13         14         15         16         17    
      0      -0.005345  -0.142605  -0.049140   0.023362  -0.007196   0.045028
      1      -0.120568   0.003843  -0.171131   0.002908   0.203402  -0.023527
      2      -0.036618   0.142543   0.018119   0.008794   0.038496   0.107937
      3      -0.008819  -0.172812  -0.064822   0.025376   0.008310   0.048354
      4       0.007872   0.005294  -0.025895   0.009725  -0.205258  -0.023888
      5      -0.003170  -0.021370   0.005986   0.007050  -0.037501   0.037909
      6      -0.021006  -0.070925  -0.046487   0.036693   0.002018   0.137521
      7       0.126428  -0.005912   0.151588  -0.004141   0.003910   0.046551
      8       0.024885  -0.100860   0.021546  -0.003240   0.000090  -0.024979
      9      -0.023826   0.056165   0.004330   0.032100  -0.005165   0.103787
     10       0.013112   0.011830  -0.057842  -0.007373   0.199524  -0.006866
     11       0.001035  -0.040212   0.004852  -0.005919   0.036366  -0.051270
     12      -0.019958   0.067915   0.016039   0.029025   0.008319   0.086148
     13      -0.114299   0.006030  -0.182562   0.007520  -0.204509  -0.007145
     14      -0.032011   0.127485   0.028805  -0.001734  -0.037698   0.000335
     15      -0.009824  -0.017821  -0.006532   0.008784  -0.000750  -0.044084
     16      -0.106428  -0.010834  -0.067422  -0.001185   0.004195   0.032576
     17      -0.036677   0.195922   0.057010   0.005372   0.003448   0.079920
     18      -0.015025  -0.029927   0.017720   0.003479  -0.002732  -0.123706
     19       0.027647   0.005837   0.101114   0.014368  -0.004684   0.118406
     20      -0.016669   0.024555   0.058686   0.018936  -0.001157  -0.025147
     21       0.031237   0.272277  -0.040890  -0.039265  -0.001927  -0.180177
     22       0.116516   0.056326  -0.201480  -0.059963  -0.010455  -0.017866
     23      -0.012053  -0.176723   0.013487   0.024430  -0.001044  -0.093218
     24       0.001641  -0.239704  -0.079871   0.027752  -0.016484   0.070467
     25      -0.174445   0.000169  -0.260762   0.007156   0.448160  -0.041853
     26      -0.050497   0.218359   0.027860   0.005435   0.085521   0.081077
     27      -0.002183  -0.277139  -0.087104   0.016671   0.014727  -0.044891
     28       0.039800   0.004222  -0.016054   0.022403  -0.442421  -0.054655
     29       0.006199  -0.067010  -0.001630   0.005622  -0.082210  -0.010577
     30      -0.024948  -0.081095  -0.057011   0.035919   0.002053   0.131078
     31       0.279145  -0.022390   0.374155  -0.005145   0.005667   0.081911
     32       0.060455  -0.206146   0.031007  -0.007256   0.001471  -0.049474
     33      -0.029545   0.156274   0.039427   0.028317  -0.011660   0.091250
     34       0.047184   0.021416  -0.073548  -0.011247   0.422901  -0.046970
     35       0.010921  -0.113647  -0.024578  -0.003700   0.077771  -0.046169
     36      -0.027524   0.168225   0.039188   0.040501   0.018935   0.193498
     37      -0.170166   0.015484  -0.285873   0.021020  -0.470320  -0.046000
     38      -0.047163   0.173197   0.016553   0.006732  -0.088830   0.042369
     39      -0.174667  -0.093728   0.189011  -0.115681   0.014015  -0.276206
     40       0.059487  -0.025651   0.044168   0.021508  -0.000565   0.048359
     41       0.049275  -0.064379   0.063033   0.020998  -0.008996   0.130558
     42       0.029906  -0.254022  -0.022732   0.021089  -0.016211  -0.120945
     43       0.095409  -0.010540   0.075645   0.030543  -0.029671   0.326325
     44      -0.017051  -0.054798   0.045602   0.022025   0.000258  -0.080150
     45       0.036206   0.197699  -0.029836  -0.064009   0.000528  -0.034377
     46       0.183581   0.049721  -0.136236  -0.229599   0.004773   0.696900
     47      -0.025522  -0.459956   0.030274   0.013247   0.000737   0.102877
     48       0.062894  -0.020839   0.133377  -0.203695  -0.006542   0.018745
     49       0.014809  -0.036220   0.211948   0.063384   0.013288  -0.115076
     50       0.122854  -0.078998  -0.182718  -0.091120   0.001405  -0.026482
     51      -0.067790  -0.011324   0.017915   0.056288   0.003481  -0.030043
     52      -0.010136  -0.030861   0.156097  -0.006285   0.004165  -0.036972
     53      -0.053183   0.044008   0.028467   0.027441  -0.002016   0.021434
     54       0.618866   0.201196  -0.207853   0.873477   0.032426   0.006799
     55      -0.081198  -0.080970   0.285783  -0.110116  -0.007202   0.086236
     56       0.264409  -0.019911  -0.274396   0.177208   0.017164  -0.114392
     57       0.391034   0.105200   0.000319   0.206382   0.007429   0.007172
     58      -0.221495   0.027539   0.353519   0.038922  -0.001653   0.024839
     59       0.016787   0.045528  -0.003142   0.033996  -0.000977   0.017606
                 18         19         20         21         22         23    
      0       0.016773   0.004996   0.006875  -0.085957  -0.241913  -0.008555
      1      -0.031664  -0.022062  -0.013346   0.017320   0.016106   0.165309
      2       0.033546   0.100350   0.000123  -0.022296  -0.191635   0.029053
      3       0.018194  -0.010493   0.013349  -0.031063  -0.232897   0.002258
      4      -0.059230   0.075346   0.064543  -0.059525  -0.032058  -0.187053
      5       0.001776   0.036536   0.033276   0.202439   0.181562  -0.039328
      6       0.044467   0.059930   0.042434   0.200097  -0.094835  -0.016660
      7       0.083527  -0.109658  -0.082100   0.026134  -0.040336   0.157519
      8       0.002818  -0.051057  -0.013089   0.053673   0.121530   0.029798
      9       0.035201   0.063269   0.003706   0.068187   0.282334   0.016004
     10      -0.052474   0.088661   0.073979  -0.014298  -0.025444  -0.189404
     11      -0.028405  -0.006884  -0.001772  -0.049206   0.265522  -0.024203
     12       0.027974   0.057020   0.002158   0.021788   0.229624   0.002894
     13      -0.018913   0.003363  -0.023099   0.077667   0.013670   0.158729
     14      -0.002405   0.058569  -0.042621  -0.276133  -0.100478   0.044874
     15      -0.020695  -0.011056  -0.029382  -0.202330   0.100697   0.019038
     16       0.113611  -0.203745  -0.135172   0.025979   0.017550  -0.223598
     17       0.046542   0.050573  -0.035872  -0.075399  -0.087441  -0.037826
     18      -0.042404  -0.052364  -0.038362  -0.179679   0.096182   0.005398
     19      -0.001584  -0.129761   0.093486  -0.140236   0.072650  -0.034642
     20      -0.030866  -0.153220   0.064925   0.154805  -0.110827  -0.026282
     21      -0.043696  -0.127545   0.009611   0.136470  -0.093019  -0.011839
     22       0.080195   0.035377   0.036140  -0.033141   0.027668   0.012636
     23      -0.017128  -0.034863   0.002217   0.043062  -0.057906  -0.001561
     24       0.028233  -0.020780   0.038839   0.147346  -0.226995  -0.032004
     25      -0.119234   0.083837   0.120705  -0.001463   0.041468   0.456663
     26       0.009168   0.135213  -0.003187  -0.201402  -0.183064   0.094825
     27      -0.011538  -0.092150  -0.004071  -0.072509  -0.037358   0.003897
     28      -0.157136   0.234641   0.206650  -0.109908  -0.010250  -0.042357
     29      -0.031200   0.032621   0.052932   0.164114   0.262853  -0.009456
     30       0.040370   0.057327   0.042666   0.179617  -0.135280  -0.026215
     31       0.159434  -0.196502  -0.117992   0.035019   0.030528   0.455280
     32       0.007701  -0.103962  -0.019290  -0.062619  -0.259069   0.076576
     33       0.034040   0.082386  -0.031163  -0.158628   0.261317   0.026043
     34      -0.155509   0.243991   0.221106  -0.116389  -0.004797  -0.038769
     35      -0.043570   0.005284   0.049038   0.104092   0.268336  -0.007581
     36       0.066323   0.136652   0.015642   0.062454   0.034622  -0.007055
     37      -0.108499   0.124332   0.081718   0.043580   0.021661   0.456111
     38      -0.003353   0.119898  -0.013498  -0.255698  -0.174871   0.103112
     39       0.091059   0.066803  -0.223346  -0.020960   0.040783  -0.228719
     40      -0.017754  -0.024452   0.067146  -0.002471  -0.005337   0.066290
     41      -0.126270  -0.438443   0.306370  -0.079108  -0.042842   0.105474
     42      -0.123922  -0.112286   0.031790  -0.272407   0.137012   0.099092
     43      -0.131605  -0.453221   0.346915  -0.327803   0.142447   0.101734
     44      -0.022785  -0.088245   0.026417   0.165748  -0.113593  -0.023477
     45      -0.208311  -0.114886  -0.131090   0.091979  -0.056649  -0.026358
     46      -0.812301  -0.056019  -0.601151   0.287634  -0.114495  -0.106869
     47      -0.204539   0.068977  -0.217414  -0.281741   0.146217   0.007597
     48      -0.006088   0.042957   0.027476   0.032110  -0.016412   0.019628
     49      -0.016204   0.186717  -0.037191   0.118181  -0.055767   0.031014
     50       0.037299   0.044532  -0.027116  -0.016353   0.010383  -0.007451
     51       0.006159   0.009481  -0.016422  -0.008039   0.004888  -0.010881
     52       0.005844   0.023270  -0.023813  -0.022787   0.011208  -0.027144
     53      -0.013898  -0.029360   0.019898   0.008812  -0.006215   0.009438
     54      -0.134705  -0.104782  -0.083763  -0.008086  -0.010617  -0.013248
[...]
    3       -32.139380   -1.147661    0.003960  0.000821
    4       -32.139607   -1.290099    0.003650  0.000800
    5       -32.139843   -1.438155    0.003492  0.000830
    6       -32.140089   -1.592488    0.003406  0.000867
    7       -32.140347   -1.754374    0.003359  0.000910
    8       -32.140617   -1.924135    0.003370  0.000954
    9       -32.140901   -2.102002    0.003654  0.000998
   10       -32.141197   -2.288050    0.003946  0.001044
   11       -32.141508   -2.482742    0.004247  0.001092
   12       -32.141832   -2.686483    0.004570  0.001144
   13       -32.142172   -2.899869    0.004903  0.001198
   14       -32.142529   -3.123803    0.005260  0.001259
   15       -32.142904   -3.358821    0.005632  0.001321
   16       -32.143296   -3.605244    0.005987  0.001382
   17       -32.143706   -3.862011    0.006313  0.001437
   18       -32.144132   -4.129461    0.006640  0.001497
   19       -32.144575   -4.407766    0.006993  0.001558
   20       -32.145037   -4.697590    0.007350  0.001622
   21       -32.145518   -4.999123    0.007731  0.001688
   22       -32.146017   -5.312236    0.008113  0.001749
   23       -32.146533   -5.636517    0.008489  0.001809
   24       -32.147067   -5.971580    0.008863  0.001868
   25       -32.147618   -6.317332    0.009224  0.001926
   26       -32.148186   -6.673806    0.009585  0.001986
   27       -32.148772   -7.041115    0.009946  0.002046
   28       -32.149375   -7.419411    0.010305  0.002106
   29       -32.149995   -7.808583    0.010659  0.002165
   30       -32.150633   -8.208859    0.011013  0.002227
   31       -32.151288   -8.619986    0.011352  0.002286
   32       -32.151960   -9.041911    0.011673  0.002344
   33       -32.152649   -9.473994    0.011984  0.002399
   34       -32.153354   -9.916354    0.012283  0.002455
   35       -32.154074   -10.368306    0.012568  0.002507
   36       -32.154810   -10.830171    0.012837  0.002561
   37       -32.155560   -11.301084    0.013089  0.002609
   38       -32.156325   -11.780831    0.013286  0.002655
   39       -32.157101   -12.268029    0.013439  0.002694
   40       -32.157889   -12.762506    0.013573  0.002732
   41       -32.158688   -13.263795    0.013711  0.002770
   42       -32.159498   -13.772018    0.013832  0.002807
   43       -32.160320   -14.287532    0.013969  0.002848
   44       -32.161150   -14.808854    0.014042  0.002877
   45       -32.161991   -15.336245    0.014085  0.002909
   46       -32.162839   -15.868188    0.014107  0.002932
   47       -32.163694   -16.405172    0.014102  0.002959
   48       -32.164555   -16.945445    0.014057  0.002974
   49       -32.165421   -17.488621    0.013970  0.002987
   50       -32.166290   -18.033638    0.013860  0.002996
   51       -32.167161   -18.580286    0.013727  0.003004
   52       -32.168033   -19.127876    0.013565  0.003007
   53       -32.168907   -19.676275    0.013388  0.003011
   54       -32.169782   -20.225165    0.013187  0.003013
   55       -32.170657   -20.774435    0.012965  0.003015
   56       -32.171533   -21.324192    0.012745  0.003019
   57       -32.172411   -21.875201    0.012521  0.003029
   58       -32.173293   -22.428242    0.012291  0.003043
   59       -32.174179   -22.984596    0.012073  0.003065
   60       -32.175075   -23.546510    0.011884  0.003104
   61       -32.175983   -24.116685    0.011731  0.003158
   62       -32.176912   -24.699536    0.011834  0.003241
   63       -32.177868   -25.299371    0.012424  0.003349
   64       -32.178864   -25.923944    0.013101  0.003507
   65       -32.179909   -26.580286    0.013869  0.003706
   66       -32.181025   -27.280262    0.014746  0.003975
   67       -32.182223   -28.032325    0.015714  0.004290
   68       -32.183527   -28.850364    0.016778  0.004682
   69       -32.184946   -29.740643    0.018015  0.005102
   70       -32.186501   -30.716769    0.020404  0.005597
   71       -32.188192   -31.777890    0.022944  0.006072
   72       -32.190033   -32.932974    0.025608  0.006592
   73       -32.192007   -34.171819    0.028328  0.007041
   74       -32.194119   -35.496680    0.031085  0.007499
   75       -32.196340   -36.890491    0.033803  0.007851
   76       -32.198665   -38.349646    0.036467  0.008186
   77       -32.201066   -39.856366    0.039026  0.008414
   78       -32.203535   -41.405320    0.041470  0.008627
   79       -32.206052   -42.985059    0.043783  0.008773
   80       -32.208614   -44.592499    0.045939  0.008920
   81       -32.211216   -46.225542    0.047960  0.009059
   82       -32.213862   -47.885946    0.049848  0.009215
   83       -32.216555   -49.575437    0.051610  0.009377
   84       -32.219296   -51.295817    0.053250  0.009548
   85       -32.222088   -53.047401    0.054760  0.009717
   86       -32.224928   -54.829509    0.056124  0.009879
   87       -32.227812   -56.639566    0.057311  0.010022
   88       -32.230735   -58.473500    0.058281  0.010139
   89       -32.233686   -60.325374    0.058977  0.010218
   90       -32.236654   -62.187693    0.059318  0.010247
   91       -32.239626   -64.053125    0.059218  0.010228
   92       -32.242593   -65.914730    0.058927  0.010196
   93       -32.245547   -67.768149    0.058452  0.010137
   94       -32.248480   -69.608576    0.057821  0.010053
   95       -32.251383   -71.430331    0.056965  0.009929
   96       -32.254241   -73.224049    0.055741  0.009740
   97       -32.257032   -74.975547    0.054007  0.009462
   98       -32.259727   -76.666650    0.051658  0.009075
   99       -32.262292   -78.276112    0.048600  0.008564

         *************************************************************
         *  MAXIMUM NUMBER OF ITERATIONS REACHED - STOPPING IRC RUN  *
         *************************************************************


         *************************************************************
         *                          BACKWARD IRC                     *
         *************************************************************

Iteration    E(Eh)      dE(kcal/mol)  max(|G|)   RMS(G) 
Convergence thresholds                0.002000  0.000500            
    0       -32.139447   -1.189451    0.020199  0.004239
    1       -32.142894   -3.352545    0.021420  0.004392
    2       -32.150575   -8.172910    0.043225  0.008588
    3       -32.159039   -13.483586    0.046819  0.008118
    4       -32.167913   -19.052299    0.041422  0.006863
    5       -32.172877   -22.167586    0.014734  0.003321
    6       -32.175554   -23.846946    0.008589  0.002199
    7       -32.177529   -25.086624    0.007760  0.001798
    8       -32.179012   -26.017266    0.007556  0.001950
    9       -32.179294   -26.194166    0.005728  0.001491
   10       -32.179948   -26.604646    0.004986  0.001259
   11       -32.180593   -27.008950    0.004770  0.001148
   12       -32.181178   -27.376429    0.004141  0.001054
   13       -32.181706   -27.707491    0.003988  0.000992
   14       -32.182167   -27.996854    0.004018  0.000937
   15       -32.182569   -28.248911    0.003408  0.001018
   16       -32.182654   -28.302178    0.003250  0.000818
   17       -32.182848   -28.424478    0.003050  0.000717
   18       -32.183047   -28.549154    0.002976  0.000679
   19       -32.183236   -28.667550    0.002781  0.000644
   20       -32.183414   -28.779509    0.002705  0.000609
   21       -32.183583   -28.885418    0.002518  0.000579
   22       -32.183742   -28.985141    0.002465  0.000552
   23       -32.183890   -29.078381    0.002257  0.000535
   24       -32.184027   -29.164098    0.002274  0.000540
   25       -32.184147   -29.239499    0.002272  0.000573
   26       -32.184194   -29.269019    0.002069  0.000519
   27       -32.184252   -29.305404    0.002049  0.000442
   28       -32.184315   -29.344957    0.001966  0.000433

                      ***********************HURRAY********************
                      ***            THE IRC HAS CONVERGED          ***
                      *************************************************


---------------------------------------------------------------
                       IRC PATH SUMMARY              
---------------------------------------------------------------
All gradients are in Eh/Bohr.

Step        E(Eh)      dE(kcal/mol)  max(|G|)   RMS(G) 
   1       -32.184315   -29.344957    0.001966  0.000433
   2       -32.184252   -29.305404    0.002049  0.000442
   3       -32.184194   -29.269019    0.002069  0.000519
   4       -32.184147   -29.239499    0.002272  0.000573
   5       -32.184027   -29.164098    0.002274  0.000540
   6       -32.183890   -29.078381    0.002257  0.000535
   7       -32.183742   -28.985141    0.002465  0.000552
   8       -32.183583   -28.885418    0.002518  0.000579
   9       -32.183414   -28.779509    0.002705  0.000609
  10       -32.183236   -28.667550    0.002781  0.000644
  11       -32.183047   -28.549154    0.002976  0.000679
  12       -32.182848   -28.424478    0.003050  0.000717
  13       -32.182654   -28.302178    0.003250  0.000818
  14       -32.182569   -28.248911    0.003408  0.001018
  15       -32.182167   -27.996854    0.004018  0.000937
  16       -32.181706   -27.707491    0.003988  0.000992
  17       -32.181178   -27.376429    0.004141  0.001054
  18       -32.180593   -27.008950    0.004770  0.001148
  19       -32.179948   -26.604646    0.004986  0.001259
  20       -32.179294   -26.194166    0.005728  0.001491
  21       -32.179012   -26.017266    0.007556  0.001950
  22       -32.177529   -25.086624    0.007760  0.001798
  23       -32.175554   -23.846946    0.008589  0.002199
  24       -32.172877   -22.167586    0.014734  0.003321
  25       -32.167913   -19.052299    0.041422  0.006863
  26       -32.159039   -13.483586    0.046819  0.008118
  27       -32.150575   -8.172910    0.043225  0.008588
  28       -32.142894   -3.352545    0.021420  0.004392
  29       -32.139447   -1.189451    0.020199  0.004239
  30       -32.137551    0.000000    0.000134  0.000030 <= TS
  31       -32.138464   -0.572720    0.020080  0.004296
  32       -32.139000   -0.909428    0.008907  0.002195
  33       -32.139183   -1.024224    0.004517  0.001248
  34       -32.139380   -1.147661    0.003960  0.000821
  35       -32.139607   -1.290099    0.003650  0.000800
  36       -32.139843   -1.438155    0.003492  0.000830
  37       -32.140089   -1.592488    0.003406  0.000867
  38       -32.140347   -1.754374    0.003359  0.000910
  39       -32.140617   -1.924135    0.003370  0.000954
  40       -32.140901   -2.102002    0.003654  0.000998
  41       -32.141197   -2.288050    0.003946  0.001044
  42       -32.141508   -2.482742    0.004247  0.001092
  43       -32.141832   -2.686483    0.004570  0.001144
  44       -32.142172   -2.899869    0.004903  0.001198
  45       -32.142529   -3.123803    0.005260  0.001259
  46       -32.142904   -3.358821    0.005632  0.001321
  47       -32.143296   -3.605244    0.005987  0.001382
  48       -32.143706   -3.862011    0.006313  0.001437
  49       -32.144132   -4.129461    0.006640  0.001497
  50       -32.144575   -4.407766    0.006993  0.001558
  51       -32.145037   -4.697590    0.007350  0.001622
  52       -32.145518   -4.999123    0.007731  0.001688
  53       -32.146017   -5.312236    0.008113  0.001749
  54       -32.146533   -5.636517    0.008489  0.001809
  55       -32.147067   -5.971580    0.008863  0.001868
  56       -32.147618   -6.317332    0.009224  0.001926
  57       -32.148186   -6.673806    0.009585  0.001986
  58       -32.148772   -7.041115    0.009946  0.002046
  59       -32.149375   -7.419411    0.010305  0.002106
  60       -32.149995   -7.808583    0.010659  0.002165
  61       -32.150633   -8.208859    0.011013  0.002227
  62       -32.151288   -8.619986    0.011352  0.002286
  63       -32.151960   -9.041911    0.011673  0.002344
  64       -32.152649   -9.473994    0.011984  0.002399
  65       -32.153354   -9.916354    0.012283  0.002455
  66       -32.154074   -10.368306    0.012568  0.002507
  67       -32.154810   -10.830171    0.012837  0.002561
  68       -32.155560   -11.301084    0.013089  0.002609
  69       -32.156325   -11.780831    0.013286  0.002655
  70       -32.157101   -12.268029    0.013439  0.002694
  71       -32.157889   -12.762506    0.013573  0.002732
  72       -32.158688   -13.263795    0.013711  0.002770
  73       -32.159498   -13.772018    0.013832  0.002807
  74       -32.160320   -14.287532    0.013969  0.002848
  75       -32.161150   -14.808854    0.014042  0.002877
  76       -32.161991   -15.336245    0.014085  0.002909
  77       -32.162839   -15.868188    0.014107  0.002932
  78       -32.163694   -16.405172    0.014102  0.002959
  79       -32.164555   -16.945445    0.014057  0.002974
  80       -32.165421   -17.488621    0.013970  0.002987
  81       -32.166290   -18.033638    0.013860  0.002996
  82       -32.167161   -18.580286    0.013727  0.003004
  83       -32.168033   -19.127876    0.013565  0.003007
  84       -32.168907   -19.676275    0.013388  0.003011
  85       -32.169782   -20.225165    0.013187  0.003013
  86       -32.170657   -20.774435    0.012965  0.003015
  87       -32.171533   -21.324192    0.012745  0.003019
  88       -32.172411   -21.875201    0.012521  0.003029
  89       -32.173293   -22.428242    0.012291  0.003043
  90       -32.174179   -22.984596    0.012073  0.003065
  91       -32.175075   -23.546510    0.011884  0.003104
  92       -32.175983   -24.116685    0.011731  0.003158
  93       -32.176912   -24.699536    0.011834  0.003241
  94       -32.177868   -25.299371    0.012424  0.003349
  95       -32.178864   -25.923944    0.013101  0.003507
  96       -32.179909   -26.580286    0.013869  0.003706
  97       -32.181025   -27.280262    0.014746  0.003975
  98       -32.182223   -28.032325    0.015714  0.004290
  99       -32.183527   -28.850364    0.016778  0.004682
 100       -32.184946   -29.740643    0.018015  0.005102
 101       -32.186501   -30.716769    0.020404  0.005597
 102       -32.188192   -31.777890    0.022944  0.006072
 103       -32.190033   -32.932974    0.025608  0.006592
 104       -32.192007   -34.171819    0.028328  0.007041
 105       -32.194119   -35.496680    0.031085  0.007499
 106       -32.196340   -36.890491    0.033803  0.007851
 107       -32.198665   -38.349646    0.036467  0.008186
 108       -32.201066   -39.856366    0.039026  0.008414
 109       -32.203535   -41.405320    0.041470  0.008627
 110       -32.206052   -42.985059    0.043783  0.008773
 111       -32.208614   -44.592499    0.045939  0.008920
 112       -32.211216   -46.225542    0.047960  0.009059
 113       -32.213862   -47.885946    0.049848  0.009215
 114       -32.216555   -49.575437    0.051610  0.009377
 115       -32.219296   -51.295817    0.053250  0.009548
 116       -32.222088   -53.047401    0.054760  0.009717
 117       -32.224928   -54.829509    0.056124  0.009879
 118       -32.227812   -56.639566    0.057311  0.010022
 119       -32.230735   -58.473500    0.058281  0.010139
 120       -32.233686   -60.325374    0.058977  0.010218
 121       -32.236654   -62.187693    0.059318  0.010247
 122       -32.239626   -64.053125    0.059218  0.010228
 123       -32.242593   -65.914730    0.058927  0.010196
 124       -32.245547   -67.768149    0.058452  0.010137
 125       -32.248480   -69.608576    0.057821  0.010053
 126       -32.251383   -71.430331    0.056965  0.009929
 127       -32.254241   -73.224049    0.055741  0.009740
 128       -32.257032   -74.975547    0.054007  0.009462
 129       -32.259727   -76.666650    0.051658  0.009075
 130       -32.262292   -78.276112    0.048600  0.008564
Converting BnOH_H2O2_ts_opt.gbw to JSON (see BnOH_H2O2_ts_opt.2jsonout) ... FAILED

--------------------------------
SUGGESTED CITATIONS FOR THIS RUN
--------------------------------

Below you find a list of papers that are relevant to this ORCA run
We neither can nor want to force you to cite these papers, but we appreciate if you do
You receive ORCA, which is the product of decades of hard work by many enthusiastic individuals, for free
The only thing we kindly ask in return is that you cite our papers,
We deeply appreciate it, if you show your appreciation for ORCA by not just citing the generic ORCA reference.

Please note that relegating all ORCA citations to the supporting information does *not* help us.
SI sections are not indexed - citations you put there will not count into any citation statistics
But we need these citations in order to attract the funding resources that allow us to do what we are doing

Therefore, if you are a happy ORCA user, please consider citing a few of the papers listed below in the main body of your paper

In addition to the list printed below, the program has created the file BnOH_H2O2_ts_opt.bibtex that contains the list in bibtex format
You can import this file easily into all common literature databanks and citation aid programs


List of essential papers. We consider these as the minimum necessary citations

  1. Bannwarth, C.; Ehlert, S.; Grimme, S.
     GFN2-xTB—An Accurate and Broadly Parametrized Self-Consistent Tight-Binding Quantum Chemical Method with Multipole Electrostatics and Density-Dependent Dispersion Contributions
     J. Chem. Theory Comput. 2019 15(3), 1652-1671
     doi.org/10.1021/acs.jctc.8b01176
  2. Neese, F.
     Software update: the ORCA program system, version 6.0
     WIRES Comput. Molec. Sci. 2025 15(1), e70019
     doi.org/10.1002/wcms.7019

List of papers to cite with high priority. The work reported in these papers was absolutely
necessary for this run to complete.
Our perspective: the developers of density functionals and basis sets usually get cited in chemistry papers
Good! But without the algorithms to do something with them, the functionals or basis sets would not do anything.
Hence, in our opinion, the algorithm design and method developments papers are equally worthy of getting cited

  1. Bykov, D.; Petrenko, T.; Izsak, R.; Kossmann, S.; Becker, U.; Valeev, E.; Neese, F.
     Efficient implementation of the analytic second derivatives of Hartree-Fock and hybrid DFT energies: a detailed analysis of different approximations
     Molec. Phys. 2015 113 , 1961-1977
     doi.org/10.1080/00268976.2015.1025114
  2. Bannwarth, C.; Caldeweyher, E.; Ehlert, S.; Hansen, A.; Pracht, P.; Seibert, J.; Spicher, S.; Grimme, S.
     Extended tight-binding quantum chemistry methods
     WIRES Comput. Molec. Sci. 2020 11(2), e1493
     doi.org/10.1002/wcms.1493

List of suggested additional citations. These are papers that are important in the 'surrounding' of 
of this run, or papers that preceded the highly important papers. If you like your results we are grateful for a citation.

  1. Neese, F.
     The ORCA program system
     WIRES Comput. Molec. Sci. 2012 2(1), 73-78
     doi.org/10.1002/wcms.81
  2. Neese, F.
     Software update: the ORCA program system, version 4.0
     WIRES Comput. Molec. Sci. 2018 8(1), 1-6
     doi.org/10.1002/wcms.1327
  3. Neese, F.; Wennmohs, F.; Becker, U.; Riplinger, C.
     The ORCA quantum chemistry program package
     J. Chem. Phys. 2020 152(22), 224108
     doi.org/10.1063/5.0004608
  4. Neese, F.
     Software update: The ORCA program system—Version 5.0
     WIRES Comput. Molec. Sci. 2022 12(1), e1606
     doi.org/10.1002/wcms.1606

List of optional additional citations

  1. Neese, F.
     Approximate second-order SCF convergence for spin unrestricted wavefunctions
     Chem. Phys. Lett. 2000 325(1-3), 93-98
     doi.org/10.1016/s0009-2614(00)00662-x

Timings for individual modules:

Sum of individual times          ...       12.668 sec (=   0.211 min)
Geometry relaxation              ...        0.042 sec (=   0.001 min)   0.3 %
XTB module                       ...       12.626 sec (=   0.210 min)  99.7 %
                             ****ORCA TERMINATED NORMALLY****
TOTAL RUN TIME: 0 days 0 hours 0 minutes 23 seconds 129 msec
